
    7200 atoms
    7776 bonds
    12672 angles
    17568 dihedrals
    3456 impropers

    6 atom types
    10 bond types
    14 angle types
    7 dihedral types
    2 improper types

0.00000000 75.3702 xlo xhi
0.00000000 65.27250789 ylo yhi
0.00000000 45.4716 zlo zhi
-37.6851 0.0 0.0 xy xz yz 

Masses 

    1    15.9994
    2    12.0107
    3    12.0107
    4    1.00794
    5    12.0107
    6    14.0067

Pair Coeffs

    1       0.06000      3.11815 # O_3 O_3
    2       0.10500      3.43085 # C_R C_R
    3       0.10500      3.43085 # C_3 C_3
    4       0.04400      2.57113 # H_ H_
    5       0.10500      3.43085 # C_2 C_2
    6       0.06900      3.26069 # N_2 N_2

Bond Coeffs

    1     462.65505      1.37926 # C_R C_R bond order=1.5
    2     572.46041      1.36631 # C_R O_3 bond order=1.0
    3     357.44038      1.08142 # C_R H_ bond order=1.0
    4     389.26171      1.46100 # C_2 C_R bond order=1.0
    5     769.38234      1.28041 # C_2 N_2 bond order=2.0
    6     354.48390      1.08442 # C_2 H_ bond order=1.0
    7     578.29491      1.40825 # C_R N_2 bond order=1.0
    8     391.66951      1.45800 # C_R C_R bond order=1.0
    9     539.20166      1.39385 # C_3 O_3 bond order=1.0
    10    331.06939      1.10940 # C_3 H_ bond order=1.0

Angle Coeffs

    1  cosine/periodic        135.76992           -1            3 # C_R C_R O_3
    2  cosine/periodic        111.29751           -1            3 # C_R C_R C_R
    3  cosine/periodic         57.28902           -1            3 # C_R C_R H_
    4  cosine/periodic        101.85214           -1            3 # C_2 C_R C_R
    5  cosine/periodic        150.01499           -1            3 # C_R C_2 N_2
    6  cosine/periodic         51.27132           -1            3 # C_R C_2 H_
    7  cosine/periodic         86.74085           -1            3 # H_ C_2 N_2
    8  fourier                291.47740      0.36401      0.41847      0.28800 # C_2 N_2 C_R
    9  cosine/periodic        143.48201           -1            3 # C_R C_R N_2
    10 cosine/periodic        102.18328           -1            3 # C_R C_R C_R
    11 cosine/periodic        102.18328           -1            3 # C_R C_R C_R
    12 fourier                320.94891      0.30023      0.26733      0.26675 # C_3 O_3 C_R
    13 fourier                165.75867      0.34375      0.37500      0.28125 # H_ C_3 O_3
    14 fourier                 75.49653      0.34375      0.37500      0.28125 # H_ C_3 H_

Dihedral Coeffs

    1       3.36856           -1            2 # X C_R C_R X bond order=1.5
    2       0.23717           -1            2 # X C_R O_3 X bond order=1.0
    3       1.25000           -1            2 # X C_2 C_R X bond order=1.0
    4       9.74339           -1            2 # X C_2 N_2 X bond order=2.0
    5       2.50000           -1            2 # X C_R N_2 X bond order=1.0
    6       1.25000           -1            2 # X C_R C_R X bond order=1.0
    7       0.03255            1            3 # X C_3 O_3 X bond order=1.0

Improper Coeffs

    1       2.00000      1.00000     -1.00000      0.00000            1 # C_R X X X O_2 present=False
    2       2.00000      1.00000     -1.00000      0.00000            1 # C_2 X X X O_2 present=False

Atoms

    1 1     2      0.11700      9.62591     14.91542      0.93671
    2 1     2     -0.08100      8.32502     15.45849      0.90034
    3 1     2     -0.01600      8.11134     16.84422      0.88363
    4 1     5      0.04000      6.71021     17.32985      0.85521
    5 1     6     -0.11200      6.43096     18.57329      0.60750
    6 1     2      0.08700      5.11952     19.15813      0.56737
    7 1     2     -0.07300      3.99839     18.54784      1.15691
    8 1     2     -0.01900      2.75403     19.18228      1.13179
    9 1     2     -0.01300      2.59311     20.43356      0.50383
   10 1     2      0.04200      1.26132     21.11370      0.48132
   11 1     2     -0.07600      0.07198     20.36306      0.47882
   12 1     1     -0.18300      9.86106     13.52642      1.03039
   13 1     4      0.05400      7.46391     14.80511      0.88181
   14 1     4      0.05000      4.08092     17.60856      1.68438
   15 1     4      0.03100      1.93212     18.70645      1.64914
   16 1     4      0.05300      0.12813     19.28542      0.48211
   17 1     4      0.02300      5.91694     16.60728      0.99185
   18 1     3     -0.02900      8.82321     12.70268      1.56468
   19 1     4      0.04600      9.24039     11.69944      1.78703
   20 1     4      0.03900      7.99527     12.57540      0.84009
   21 1     4      0.04000      8.42978     13.13870      2.50128
   22 1     2      0.11700     19.95539      0.87792      0.93671
   23 1     2     -0.08100      1.29260     32.11668      0.90034
   24 1     2     -0.01600      0.19935     31.23877      0.88363
   25 1     5      0.03900      0.47935     29.78254      0.85521
   26 1     6     -0.11300     -0.45787     28.91898      0.60750
   27 1     2      0.08700     -0.30864     27.49082      0.56737
   28 1     2     -0.07500      0.78046     26.82504      1.15691
   29 1     2     -0.01500      0.85319     25.43017      1.13179
   30 1     2     -0.01600     -0.14961     24.66452      0.50383
   31 1     2      0.04100     -0.07273     23.17109      0.48132
   32 1     2     -0.07800      1.17163     22.51706      0.47882
   33 1     1     -0.18400     21.04035      1.77672      1.03039
   34 1     4      0.05300      2.28937     31.69698      0.88181
   35 1     4      0.04900      1.55263     27.36615      1.68438
   36 1     4      0.02700      1.67623     24.95629      1.64914
   37 1     4      0.05200      2.07683     23.10451      0.48211
   38 1     4      0.02200      1.50175     29.45683      0.99185
   39 1     3     -0.03000     22.27265      1.28978      1.56468
   40 1     4      0.04500     22.93251      2.15334      1.78703
   41 1     4      0.03800     22.79685      0.63641      0.84009
   42 1     4      0.04000     22.09176      0.73105      2.50128
   43 1     2      0.11600     26.94748     16.84227      0.93671
   44 1     2     -0.08200     -9.61761     17.69734      0.90034
   45 1     2     -0.01700     -8.31070     17.18951      0.88363
   46 1     5      0.03900     -7.18956     18.16012      0.85521
   47 1     6     -0.11300     -5.97309     17.78023      0.60750
   48 1     2      0.08700     -4.81088     18.62355      0.56737
   49 1     2     -0.07400     -4.77885     19.89963      1.15691
   50 1     2     -0.01800     -3.60722     20.66005      1.13179
   51 1     2     -0.01600     -2.44237     20.17377      0.50383
   52 1     2      0.04000     -1.18746     20.98707      0.48132
   53 1     2     -0.07800     -1.24361     22.39239      0.47882
   54 1     1     -0.18400     25.62624     17.33311      1.03039
   55 1     4      0.05300     -9.75215     18.76976      0.88181
   56 1     4      0.04900     -5.63355     20.29779      1.68438
   57 1     4      0.02800     -3.60835     21.60977      1.64914
   58 1     4      0.05200     -2.20496     22.88258      0.48211
   59 1     4      0.02200     -7.41869     19.20839      0.99185
   60 1     3     -0.03000     25.43179     18.64379      1.56468
   61 1     4      0.04500     24.35437     18.78412      1.78703
   62 1     4      0.03800     25.73553     19.42445      0.84009
   63 1     4      0.03900     26.00611     18.76650      2.50128
   64 1     2      0.11600      9.21664     17.72083      0.93671
   65 1     2     -0.08100     10.51753     17.17777      0.90034
   66 1     2     -0.01800     10.73121     15.79203      0.88363
   67 1     5      0.03900     12.13234     15.30640      0.85521
   68 1     6     -0.11300     12.41159     14.06296      0.60750
   69 1     2      0.08700     13.72303     13.47812      0.56737
   70 1     2     -0.07300     14.84416     14.08842      1.15691
   71 1     2     -0.01500     16.08852     13.45397      1.13179
   72 1     2     -0.01600     16.24944     12.20270      0.50383
   73 1     2      0.04100     17.58123     11.52256      0.48132
   74 1     2     -0.07800     18.77057     12.27319      0.47882
   75 1     1     -0.18400      8.98149     19.10983      1.03039
   76 1     4      0.05200     11.37864     17.83114      0.88181
   77 1     4      0.05100     14.76163     15.02769      1.68438
   78 1     4      0.03400     16.91043     13.92981      1.64914
   79 1     4      0.05300     18.71442     13.35084      0.48211
   80 1     4      0.02200     12.92561     16.02897      0.99185
   81 1     3     -0.03000     10.01934     19.93357      1.56468
   82 1     4      0.04400      9.60216     20.93681      1.78703
   83 1     4      0.03800     10.84728     20.06085      0.84009
   84 1     4      0.03900     10.41277     19.49755      2.50128
   85 1     2      0.11600     -1.11246     31.75769      0.93671
   86 1     2     -0.08100     17.54995      0.51957      0.90034
   87 1     2     -0.01700     18.64320      1.39748      0.88363
   88 1     5      0.03900     18.36320      2.85371      0.85521
   89 1     6     -0.11300     19.30042      3.71727      0.60750
   90 1     2      0.08500     19.15119      5.14543      0.56737
   91 1     2     -0.07100     18.06209      5.81121      1.15691
   92 1     2     -0.01800     17.98936      7.20608      1.13179
   93 1     2     -0.01200     18.99216      7.97173      0.50383
   94 1     2      0.04100     18.91528      9.46517      0.48132
   95 1     2     -0.07700     17.67092     10.11920      0.47882
   96 1     1     -0.18400     -2.19780     30.85954      1.03039
   97 1     4      0.05300     16.55318      0.93927      0.88181
   98 1     4      0.05100     17.28992      5.27010      1.68438
   99 1     4      0.03500     17.16632      7.67996      1.64914
  100 1     4      0.05200     16.76572      9.53174      0.48211
  101 1     4      0.02200     17.34080      3.17942      0.99185
  102 1     3     -0.03000     -3.43010     31.34647      1.56468
  103 1     4      0.04400     -4.09034     30.48357      1.78703
  104 1     4      0.03800     -3.95392     31.99919      0.84009
  105 1     4      0.03900     -3.24921     31.90520      2.50128
  106 1     2      0.11600     -8.10418     15.79399      0.93671
  107 1     2     -0.08100     28.46016     14.93892      0.90034
  108 1     2     -0.01800     27.15325     15.44674      0.88363
  109 1     5      0.03900     26.03211     14.47614      0.85521
  110 1     6     -0.11300     24.81564     14.85602      0.60750
  111 1     2      0.08600     23.65343     14.01270      0.56737
  112 1     2     -0.07200     23.62140     12.73662      1.15691
  113 1     2     -0.01700     22.44977     11.97620      1.13179
  114 1     2     -0.01500     21.28492     12.46248      0.50383
  115 1     2      0.03900     20.03001     11.64918      0.48132
  116 1     2     -0.07700     20.08616     10.24387      0.47882
  117 1     1     -0.18400     -6.78369     15.30314      1.03039
  118 1     4      0.05300     28.59470     13.86649      0.88181
  119 1     4      0.05000     24.47610     12.33846      1.68438
  120 1     4      0.03500     22.45090     11.02648      1.64914
  121 1     4      0.05200     21.04751      9.75367      0.48211
  122 1     4      0.02100     26.26124     13.42786      0.99185
  123 1     3     -0.03000     -6.58924     13.99247      1.56468
  124 1     4      0.04400     -5.51182     13.85213      1.78703
  125 1     4      0.03800     -6.89298     13.21181      0.84009
  126 1     4      0.03900     -7.16356     13.86976      2.50128
  127 1     2      0.11600     47.31101     14.91542      0.93671
  128 1     2     -0.08200     46.01012     15.45849      0.90034
  129 1     2     -0.01700     45.79644     16.84422      0.88363
  130 1     5      0.03900     44.39531     17.32985      0.85521
  131 1     6     -0.11300     44.11606     18.57329      0.60750
  132 1     2      0.08600     42.80462     19.15813      0.56737
  133 1     2     -0.07400     41.68349     18.54784      1.15691
  134 1     2     -0.02000     40.43913     19.18228      1.13179
  135 1     2     -0.01400     40.27821     20.43356      0.50383
  136 1     2      0.04100     38.94642     21.11370      0.48132
  137 1     2     -0.07700     37.75708     20.36306      0.47882
  138 1     1     -0.18400     47.54616     13.52642      1.03039
  139 1     4      0.05300     45.14901     14.80511      0.88181
  140 1     4      0.04900     41.76602     17.60856      1.68438
  141 1     4      0.03000     39.61722     18.70645      1.64914
  142 1     4      0.05200     37.81323     19.28542      0.48211
  143 1     4      0.02200     43.60204     16.60728      0.99185
  144 1     3     -0.03000     46.50831     12.70268      1.56468
  145 1     4      0.04500     46.92549     11.69944      1.78703
  146 1     4      0.03800     45.68037     12.57540      0.84009
  147 1     4      0.03900     46.11488     13.13870      2.50128
  148 1     2      0.11600     57.64049      0.87792      0.93671
  149 1     2     -0.08200     38.97770     32.11668      0.90034
  150 1     2     -0.01700     37.88445     31.23877      0.88363
  151 1     5      0.03900     38.16445     29.78254      0.85521
  152 1     6     -0.11300     37.22723     28.91898      0.60750
  153 1     2      0.08700     37.37646     27.49082      0.56737
  154 1     2     -0.07500     38.46556     26.82504      1.15691
  155 1     2     -0.01500     38.53829     25.43017      1.13179
  156 1     2     -0.01600     37.53549     24.66452      0.50383
  157 1     2      0.04100     37.61237     23.17109      0.48132
  158 1     2     -0.07800     38.85673     22.51706      0.47882
  159 1     1     -0.18400     58.72545      1.77672      1.03039
  160 1     4      0.05300     39.97447     31.69698      0.88181
  161 1     4      0.04900     39.23773     27.36615      1.68438
  162 1     4      0.02700     39.36133     24.95629      1.64914
  163 1     4      0.05200     39.76193     23.10451      0.48211
  164 1     4      0.02200     39.18685     29.45683      0.99185
  165 1     3     -0.03000     59.95775      1.28978      1.56468
  166 1     4      0.04500     60.61761      2.15334      1.78703
  167 1     4      0.03800     60.48195      0.63641      0.84009
  168 1     4      0.04000     59.77686      0.73105      2.50128
  169 1     2      0.11600     64.63183     16.84227      0.93671
  170 1     2     -0.08200     28.06749     17.69734      0.90034
  171 1     2     -0.01700     29.37440     17.18951      0.88363
  172 1     5      0.03900     30.49554     18.16012      0.85521
  173 1     6     -0.11300     31.71201     17.78023      0.60750
  174 1     2      0.08700     32.87422     18.62355      0.56737
  175 1     2     -0.07400     32.90625     19.89963      1.15691
  176 1     2     -0.01800     34.07788     20.66005      1.13179
  177 1     2     -0.01600     35.24273     20.17377      0.50383
  178 1     2      0.04000     36.49764     20.98707      0.48132
  179 1     2     -0.07800     36.44149     22.39239      0.47882
  180 1     1     -0.18400     63.31134     17.33311      1.03039
  181 1     4      0.05300     27.93295     18.76976      0.88181
  182 1     4      0.04900     32.05155     20.29779      1.68438
  183 1     4      0.02800     34.07675     21.60977      1.64914
  184 1     4      0.05200     35.48014     22.88258      0.48211
  185 1     4      0.02200     30.26641     19.20839      0.99185
  186 1     3     -0.03000     63.11689     18.64379      1.56468
  187 1     4      0.04500     62.03872     18.78412      1.78703
  188 1     4      0.03800     63.42063     19.42445      0.84009
  189 1     4      0.03900     63.69121     18.76650      2.50128
  190 1     2      0.11600     46.90174     17.72083      0.93671
  191 1     2     -0.08100     48.20263     17.17777      0.90034
  192 1     2     -0.01800     48.41631     15.79203      0.88363
  193 1     5      0.03900     49.81744     15.30640      0.85521
  194 1     6     -0.11300     50.09669     14.06296      0.60750
  195 1     2      0.08700     51.40813     13.47812      0.56737
  196 1     2     -0.07300     52.52926     14.08842      1.15691
  197 1     2     -0.01500     53.77362     13.45397      1.13179
  198 1     2     -0.01600     53.93454     12.20270      0.50383
  199 1     2      0.04100     55.26633     11.52256      0.48132
  200 1     2     -0.07800     56.45567     12.27319      0.47882
  201 1     1     -0.18400     46.66659     19.10983      1.03039
  202 1     4      0.05200     49.06374     17.83114      0.88181
  203 1     4      0.05100     52.44673     15.02769      1.68438
  204 1     4      0.03400     54.59553     13.92981      1.64914
  205 1     4      0.05300     56.39952     13.35084      0.48211
  206 1     4      0.02200     50.61071     16.02897      0.99185
  207 1     3     -0.03000     47.70444     19.93357      1.56468
  208 1     4      0.04400     47.28726     20.93681      1.78703
  209 1     4      0.03800     48.53238     20.06085      0.84009
  210 1     4      0.03900     48.09787     19.49755      2.50128
  211 1     2      0.11600     36.57264     31.75769      0.93671
  212 1     2     -0.08100     55.23505      0.51957      0.90034
  213 1     2     -0.01700     56.32830      1.39748      0.88363
  214 1     5      0.03900     56.04830      2.85371      0.85521
  215 1     6     -0.11300     56.98552      3.71727      0.60750
  216 1     2      0.08500     56.83629      5.14543      0.56737
  217 1     2     -0.07100     55.74719      5.81121      1.15691
  218 1     2     -0.01800     55.67446      7.20608      1.13179
  219 1     2     -0.01200     56.67726      7.97173      0.50383
  220 1     2      0.04100     56.60038      9.46517      0.48132
  221 1     2     -0.07700     55.35602     10.11920      0.47882
  222 1     1     -0.18400     35.48730     30.85954      1.03039
  223 1     4      0.05300     54.23828      0.93927      0.88181
  224 1     4      0.05100     54.97502      5.27010      1.68438
  225 1     4      0.03500     54.85142      7.67996      1.64914
  226 1     4      0.05200     54.45082      9.53174      0.48211
  227 1     4      0.02200     55.02590      3.17942      0.99185
  228 1     3     -0.03000     34.25500     31.34647      1.56468
  229 1     4      0.04400     33.59514     30.48291      1.78703
  230 1     4      0.03800     33.73118     31.99919      0.84009
  231 1     4      0.03900     34.43589     31.90520      2.50128
  232 1     2      0.11600     29.58092     15.79399      0.93671
  233 1     2     -0.08100     66.14526     14.93892      0.90034
  234 1     2     -0.01800     64.83835     15.44674      0.88363
  235 1     5      0.03900     63.71721     14.47614      0.85521
  236 1     6     -0.11300     62.50074     14.85602      0.60750
  237 1     2      0.08600     61.33853     14.01270      0.56737
  238 1     2     -0.07200     61.30650     12.73662      1.15691
  239 1     2     -0.01700     60.13487     11.97620      1.13179
  240 1     2     -0.01500     58.97002     12.46248      0.50383
  241 1     2      0.03900     57.71511     11.64918      0.48132
  242 1     2     -0.07700     57.77126     10.24387      0.47882
  243 1     1     -0.18400     30.90141     15.30314      1.03039
  244 1     4      0.05300     66.27980     13.86649      0.88181
  245 1     4      0.05000     62.16120     12.33846      1.68438
  246 1     4      0.03500     60.13600     11.02648      1.64914
  247 1     4      0.05200     58.73261      9.75367      0.48211
  248 1     4      0.02100     63.94634     13.42786      0.99185
  249 1     3     -0.03000     31.09586     13.99247      1.56468
  250 1     4      0.04400     32.17328     13.85213      1.78703
  251 1     4      0.03800     30.79212     13.21181      0.84009
  252 1     4      0.03900     30.52079     13.86976      2.50128
  253 1     2      0.11600     -9.21664     47.55167      0.93671
  254 1     2     -0.08200    -10.51753     48.09474      0.90034
  255 1     2     -0.01700    -10.73121     49.48048      0.88363
  256 1     5      0.03900    -12.13234     49.96610      0.85521
  257 1     6     -0.11300    -12.41159     51.20955      0.60750
  258 1     2      0.08600    -13.72303     51.79439      0.56737
  259 1     2     -0.07400    -14.84416     51.18409      1.15691
  260 1     2     -0.02000    -16.08852     51.81854      1.13179
  261 1     2     -0.01400    -16.24944     53.06981      0.50383
  262 1     2      0.04100    -17.58123     53.74995      0.48132
  263 1     2     -0.07700    -18.77057     52.99932      0.47882
  264 1     1     -0.18400     -8.98149     46.16268      1.03039
  265 1     4      0.05300    -11.37864     47.44136      0.88181
  266 1     4      0.04900    -14.76163     50.24482      1.68438
  267 1     4      0.03000    -16.91043     51.34270      1.64914
  268 1     4      0.05200    -18.71442     51.92167      0.48211
  269 1     4      0.02200    -12.92561     49.24354      0.99185
  270 1     3     -0.03000    -10.01934     45.33894      1.56468
  271 1     4      0.04500     -9.60216     44.33570      1.78703
  272 1     4      0.03800    -10.84728     45.21166      0.84009
  273 1     4      0.03900    -10.41277     45.77496      2.50128
  274 1     2      0.11600      1.11284     33.51417      0.93671
  275 1     2     -0.08200    -17.54995     64.75294      0.90034
  276 1     2     -0.01700    -18.64320     63.87502      0.88363
  277 1     5      0.03900    -18.36320     62.41879      0.85521
  278 1     6     -0.11300    -19.30042     61.55524      0.60750
  279 1     2      0.08700    -19.15119     60.12708      0.56737
  280 1     2     -0.07500    -18.06209     59.46130      1.15691
  281 1     2     -0.01500    -17.98936     58.06642      1.13179
  282 1     2     -0.01600    -18.99216     57.30078      0.50383
  283 1     2      0.04100    -18.91528     55.80734      0.48132
  284 1     2     -0.07800    -17.67092     55.15331      0.47882
  285 1     1     -0.18400      2.19780     34.41297      1.03039
  286 1     4      0.05300    -16.55318     64.33324      0.88181
  287 1     4      0.04900    -17.28992     60.00241      1.68438
  288 1     4      0.02700    -17.16632     57.59254      1.64914
  289 1     4      0.05200    -16.76572     55.74076      0.48211
  290 1     4      0.02200    -17.34080     62.09308      0.99185
  291 1     3     -0.03000      3.43010     33.92604      1.56468
  292 1     4      0.04500      4.09034     34.78894      1.78703
  293 1     4      0.03800      3.95430     33.27266      0.84009
  294 1     4      0.04000      3.24959     33.36665      2.50128
  295 1     2      0.11600      8.10493     49.47852      0.93671
  296 1     2     -0.08200    -28.46016     50.33359      0.90034
  297 1     2     -0.01700    -27.15325     49.82577      0.88363
  298 1     5      0.03900    -26.03211     50.79637      0.85521
  299 1     6     -0.11300    -24.81564     50.41649      0.60750
  300 1     2      0.08700    -23.65343     51.25981      0.56737
  301 1     2     -0.07400    -23.62140     52.53588      1.15691
  302 1     2     -0.01800    -22.44977     53.29631      1.13179
  303 1     2     -0.01600    -21.28492     52.81003      0.50383
  304 1     2      0.04000    -20.03001     53.62332      0.48132
  305 1     2     -0.07800    -20.08616     55.02864      0.47882
  306 1     1     -0.18400      6.78369     49.96937      1.03039
  307 1     4      0.05300    -28.59470     51.40602      0.88181
  308 1     4      0.04900    -24.47610     52.93405      1.68438
  309 1     4      0.02800    -22.45090     54.24602      1.64914
  310 1     4      0.05200    -21.04751     55.51884      0.48211
  311 1     4      0.02200    -26.26124     51.84465      0.99185
  312 1     3     -0.03000      6.58924     51.28004      1.56468
  313 1     4      0.04500      5.51182     51.42038      1.78703
  314 1     4      0.03800      6.89298     52.06070      0.84009
  315 1     4      0.03900      7.16356     51.40275      2.50128
  316 1     2      0.11600     -9.62591     50.35709      0.93671
  317 1     2     -0.08100     -8.32502     49.81402      0.90034
  318 1     2     -0.01800     -8.11134     48.42828      0.88363
  319 1     5      0.03900     -6.71021     47.94266      0.85521
  320 1     6     -0.11300     -6.43096     46.69922      0.60750
  321 1     2      0.08700     -5.11952     46.11437      0.56737
  322 1     2     -0.07300     -3.99839     46.72467      1.15691
  323 1     2     -0.01500     -2.75403     46.09022      1.13179
  324 1     2     -0.01600     -2.59311     44.83895      0.50383
  325 1     2      0.04100     -1.26132     44.15881      0.48132
  326 1     2     -0.07800     -0.07198     44.90944      0.47882
  327 1     1     -0.18400     -9.86106     51.74609      1.03039
  328 1     4      0.05200     -7.46391     50.46740      0.88181
  329 1     4      0.05100     -4.08092     47.66394      1.68438
  330 1     4      0.03400     -1.93212     46.56606      1.64914
  331 1     4      0.05300     -0.12813     45.98709      0.48211
  332 1     4      0.02200     -5.91694     48.66522      0.99185
  333 1     3     -0.03000     -8.82321     52.56983      1.56468
  334 1     4      0.04400     -9.24039     53.57306      1.78703
  335 1     4      0.03800     -7.99527     52.69711      0.84009
  336 1     4      0.03900     -8.42978     52.13380      2.50128
  337 1     2      0.11600    -19.95501     64.39394      0.93671
  338 1     2     -0.08100     -1.29260     33.15582      0.90034
  339 1     2     -0.01700     -0.19935     34.03374      0.88363
  340 1     5      0.03900     -0.47935     35.48997      0.85521
  341 1     6     -0.11300      0.45787     36.35352      0.60750
  342 1     2      0.08500      0.30864     37.78169      0.56737
  343 1     2     -0.07100     -0.78046     38.44747      1.15691
  344 1     2     -0.01800     -0.85319     39.84234      1.13179
  345 1     2     -0.01200      0.14961     40.60799      0.50383
  346 1     2      0.04100      0.07273     42.10142      0.48132
  347 1     2     -0.07700     -1.17163     42.75545      0.47882
  348 1     1     -0.18400    -21.04035     63.49579      1.03039
  349 1     4      0.05300     -2.28937     33.57553      0.88181
  350 1     4      0.05100     -1.55263     37.90636      1.68438
  351 1     4      0.03500     -1.67623     40.31622      1.64914
  352 1     4      0.05200     -2.07683     42.16800      0.48211
  353 1     4      0.02200     -1.50175     35.81568      0.99185
  354 1     3     -0.03000    -22.27265     63.98272      1.56468
  355 1     4      0.04400    -22.93251     63.11917      1.78703
  356 1     4      0.03800    -22.79647     64.63545      0.84009
  357 1     4      0.03900    -22.09176     64.54146      2.50128
  358 1     2      0.11600    -26.94673     48.43024      0.93671
  359 1     2     -0.08100      9.61761     47.57517      0.90034
  360 1     2     -0.01800      8.31070     48.08299      0.88363
  361 1     5      0.03900      7.18956     47.11239      0.85521
  362 1     6     -0.11300      5.97309     47.49228      0.60750
  363 1     2      0.08600      4.81088     46.64896      0.56737
  364 1     2     -0.07200      4.77885     45.37288      1.15691
  365 1     2     -0.01700      3.60722     44.61245      1.13179
  366 1     2     -0.01500      2.44237     45.09873      0.50383
  367 1     2      0.03900      1.18746     44.28544      0.48132
  368 1     2     -0.07700      1.24361     42.88012      0.47882
  369 1     1     -0.18400    -25.62624     47.93939      1.03039
  370 1     4      0.05300      9.75215     46.50275      0.88181
  371 1     4      0.05000      5.63355     44.97472      1.68438
  372 1     4      0.03500      3.60835     43.66274      1.64914
  373 1     4      0.05200      2.20496     42.38992      0.48211
  374 1     4      0.02100      7.41869     46.06411      0.99185
  375 1     3     -0.03000    -25.43179     46.62872      1.56468
  376 1     4      0.04400    -24.35437     46.48839      1.78703
  377 1     4      0.03800    -25.73553     45.84806      0.84009
  378 1     4      0.03900    -26.00611     46.50601      2.50128
  379 1     2      0.11600     28.46846     47.55167      0.93671
  380 1     2     -0.08200     27.16757     48.09474      0.90034
  381 1     2     -0.01700     26.95389     49.48048      0.88363
  382 1     5      0.03900     25.55276     49.96610      0.85521
  383 1     6     -0.11300     25.27351     51.20955      0.60750
  384 1     2      0.08600     23.96207     51.79439      0.56737
  385 1     2     -0.07400     22.84094     51.18409      1.15691
  386 1     2     -0.02000     21.59658     51.81854      1.13179
  387 1     2     -0.01400     21.43566     53.06981      0.50383
  388 1     2      0.04100     20.10387     53.74995      0.48132
  389 1     2     -0.07700     18.91453     52.99932      0.47882
  390 1     1     -0.18400     28.70361     46.16268      1.03039
  391 1     4      0.05300     26.30646     47.44136      0.88181
  392 1     4      0.04900     22.92347     50.24482      1.68438
  393 1     4      0.03000     20.77467     51.34270      1.64914
  394 1     4      0.05200     18.97068     51.92167      0.48211
  395 1     4      0.02200     24.75949     49.24354      0.99185
  396 1     3     -0.03000     27.66576     45.33894      1.56468
  397 1     4      0.04500     28.08294     44.33570      1.78703
  398 1     4      0.03800     26.83782     45.21166      0.84009