
    6000 atoms
    6480 bonds
    10560 angles
    14640 dihedrals
    2880 impropers

    6 atom types
    10 bond types
    14 angle types
    7 dihedral types
    2 improper types

0.00000000 75.3702 xlo xhi
0.00000000 65.27250789 ylo yhi
0.00000000 37.893 zlo zhi
-37.6851 0.0 0.0 xy xz yz 

Masses 

    1    12.0107
    2    14.0067
    3    12.0107
    4    15.9994
    5    12.0107
    6    1.00794

Pair Coeffs

    1       0.10500      3.43085 # C_3 C_3
    2       0.06900      3.26069 # N_2 N_2
    3       0.10500      3.43085 # C_R C_R
    4       0.06000      3.11815 # O_3 O_3
    5       0.10500      3.43085 # C_2 C_2
    6       0.04400      2.57113 # H_ H_

Bond Coeffs

    1     462.65505      1.37926 # C_R C_R bond order=1.5
    2     572.46041      1.36631 # C_R O_3 bond order=1.0
    3     357.44038      1.08142 # C_R H_ bond order=1.0
    4     389.26171      1.46100 # C_2 C_R bond order=1.0
    5     769.38234      1.28041 # C_2 N_2 bond order=2.0
    6     354.48390      1.08442 # C_2 H_ bond order=1.0
    7     578.29491      1.40825 # C_R N_2 bond order=1.0
    8     391.66951      1.45800 # C_R C_R bond order=1.0
    9     539.20166      1.39385 # C_3 O_3 bond order=1.0
    10    331.06939      1.10940 # C_3 H_ bond order=1.0

Angle Coeffs

    1  cosine/periodic        135.76992           -1            3 # C_R C_R O_3
    2  cosine/periodic        111.29751           -1            3 # C_R C_R C_R
    3  cosine/periodic         57.28902           -1            3 # C_R C_R H_
    4  cosine/periodic        101.85214           -1            3 # C_2 C_R C_R
    5  cosine/periodic        150.01499           -1            3 # C_R C_2 N_2
    6  cosine/periodic         51.27132           -1            3 # C_R C_2 H_
    7  cosine/periodic         86.74085           -1            3 # H_ C_2 N_2
    8  fourier                291.47740      0.36401      0.41847      0.28800 # C_2 N_2 C_R
    9  cosine/periodic        143.48201           -1            3 # C_R C_R N_2
    10 cosine/periodic        102.18328           -1            3 # C_R C_R C_R
    11 cosine/periodic        102.18328           -1            3 # C_R C_R C_R
    12 fourier                320.94891      0.30023      0.26733      0.26675 # C_3 O_3 C_R
    13 fourier                165.75867      0.34375      0.37500      0.28125 # H_ C_3 O_3
    14 fourier                 75.49653      0.34375      0.37500      0.28125 # H_ C_3 H_

Dihedral Coeffs

    1       3.36856           -1            2 # X C_R C_R X bond order=1.5
    2       0.23717           -1            2 # X C_R O_3 X bond order=1.0
    3       1.25000           -1            2 # X C_2 C_R X bond order=1.0
    4       9.74339           -1            2 # X C_2 N_2 X bond order=2.0
    5       2.50000           -1            2 # X C_R N_2 X bond order=1.0
    6       1.25000           -1            2 # X C_R C_R X bond order=1.0
    7       0.03255            1            3 # X C_3 O_3 X bond order=1.0

Improper Coeffs

    1       2.00000      1.00000     -1.00000      0.00000            1 # C_R X X X O_2 present=False
    2       2.00000      1.00000     -1.00000      0.00000            1 # C_2 X X X O_2 present=False

Atoms

    1 1     3      0.11200      6.38197     12.18050      0.90754
    2 1     3     -0.08400      5.08184     12.72357      0.87116
    3 1     3     -0.02100      4.86816     14.10931      0.85449
    4 1     5      0.03700      3.46703     14.59493      0.82599
    5 1     2     -0.11500      3.18778     15.83837      0.57832
    6 1     3      0.08400      1.87634     16.42322      0.53816
    7 1     3     -0.07500      0.75446     15.81292      1.12777
    8 1     3     -0.02000     -0.48991     16.44737      1.10269
    9 1     3     -0.01700     -0.65082     17.69864      0.47472
   10 1     3      0.03600     -1.98261     18.37878      0.45214
   11 1     3     -0.07800     -3.17120     17.62815      0.44971
   12 1     4     -0.18800      6.61713     10.79150      1.00121
   13 1     6      0.05000      4.21998     12.07019      0.85267
   14 1     6      0.04700      0.83699     14.87365      1.65524
   15 1     6      0.03000     -1.31182     15.97153      1.62000
   16 1     6      0.04900     -3.11580     16.55050      0.45297
   17 1     6      0.02000      2.67376     13.87237      0.96271
   18 1     1     -0.02800      5.58003      9.96776      1.53550
   19 1     6      0.04200      5.99721      8.96453      1.75786
   20 1     6      0.03600      4.75209      9.84048      0.81091
   21 1     6      0.03700      5.18585     10.40379      2.47214
   22 1     3      0.12100     -2.13072     30.77990      0.90754
   23 1     3     -0.07500     -1.95058     29.38177      0.87116
   24 1     3     -0.01600     -3.04383     28.50385      0.85449
   25 1     5      0.03800     -2.76420     27.04827      0.82599
   26 1     2     -0.11300     -3.70105     26.18407      0.57832
   27 1     3      0.08600     -3.55182     24.75590      0.53816
   28 1     3     -0.07400     -2.46272     24.09012      1.12777
   29 1     3     -0.01800     -2.38999     22.69525      1.10269
   30 1     3     -0.01500     -3.39317     21.93026      0.47472
   31 1     3      0.03900     -3.31629     20.43682      0.45214
   32 1     3     -0.07700     -2.07155     19.78214      0.44971
   33 1     4     -0.18000     -1.04538     31.67805      1.00121
   34 1     6      0.05600     -0.95419     28.96272      0.85267
   35 1     6      0.04800     -1.69055     24.63123      1.65524
   36 1     6      0.03600     -1.56695     22.22137      1.62000
   37 1     6      0.05100     -1.16635     20.36959      0.45297
   38 1     6      0.02300     -1.74143     26.72191      0.96271
   39 1     1     -0.03400      0.18692     31.19112      1.53550
   40 1     6      0.05000      0.84678     32.05468      1.75786
   41 1     6      0.04100      0.71074     30.53840      0.81091
   42 1     6      0.05100      0.00603     30.63239      2.47214
   43 1     3      0.12000     23.70317     14.10800      0.90754
   44 1     3     -0.07600     24.82431     14.96242      0.87116
   45 1     3     -0.01500     26.13123     14.45460      0.85449
   46 1     5      0.04300     27.25160     15.42520      0.82599
   47 1     2     -0.11300     28.46883     15.04531      0.57832
   48 1     3      0.08600     -8.05406     15.88863      0.53816
   49 1     3     -0.06800     -8.02240     17.16536      1.12777
   50 1     3     -0.01400     -6.85077     17.92579      1.10269
   51 1     3     -0.01100     -5.68668     17.43951      0.47472
   52 1     3      0.04100     -4.43177     18.25280      0.45214
   53 1     3     -0.07600     -4.48679     19.65747      0.44971
   54 1     4     -0.18600     22.38269     14.59885      1.00121
   55 1     6      0.05800     24.68864     16.03550      0.85267
   56 1     6      0.05100     -8.87710     17.56353      1.65524
   57 1     6      0.03400     -6.85190     18.87550      1.62000
   58 1     6      0.04800     -5.44851     20.14832      0.45297
   59 1     6      0.02400     27.02323     16.47348      0.96271
   60 1     1     -0.02300     22.18861     15.90887      1.53550
   61 1     6      0.03800     21.11044     16.04920      1.75786
   62 1     6      0.03800     22.49160     16.68953      0.81091
   63 1     6      0.02900     22.76255     16.03223      2.47214
   64 1     3      0.11400      5.97347     14.98592      0.90754
   65 1     3     -0.08300      7.27435     14.44285      0.87116
   66 1     3     -0.02100      7.48803     13.05711      0.85449
   67 1     5      0.03700      8.88878     12.57214      0.82599
   68 1     2     -0.11500      9.16841     11.32804      0.57832
   69 1     3      0.08800     10.47985     10.74320      0.53816
   70 1     3     -0.07300     11.60060     11.35415      1.12777
   71 1     3     -0.01600     12.84497     10.71970      1.10269
   72 1     3     -0.01500     13.00626      9.46778      0.47472
   73 1     3      0.03800     14.33805      8.78764      0.45214
   74 1     3     -0.08000     15.52739      9.53827      0.44971
   75 1     4     -0.18300      5.73793     16.37557      1.00121
   76 1     6      0.05600      8.13546     15.09623      0.85267
   77 1     6      0.05700     11.51807     12.29342      1.65524
   78 1     6      0.03200     13.66688     11.19554      1.62000
   79 1     6      0.05100     15.47086     10.61657      0.45297
   80 1     6      0.02800      9.68243     13.29405      0.96271
   81 1     1     -0.03300      6.77616     17.19865      1.53550
   82 1     6      0.05500      6.35861     18.20254      1.75786
   83 1     6      0.04500      7.60372     17.32659      0.81091
   84 1     6      0.04800      7.16959     16.76263      2.47214
   85 1     3      0.11600     -4.35602     29.02342      0.90754
   86 1     3     -0.08200     -4.53578     30.42091      0.87116
   87 1     3     -0.02100     -3.44253     31.29882      0.85449
   88 1     5      0.03300     15.11926      0.11880      0.82599
   89 1     2     -0.11400     16.05724      0.98235      0.57832
   90 1     3      0.08500     15.90801      2.41051      0.53816
   91 1     3     -0.07400     14.81816      3.07629      1.12777
   92 1     3     -0.01800     14.74543      4.47117      1.10269
   93 1     3     -0.01600     15.74898      5.23681      0.47472
   94 1     3      0.03800     15.67210      6.73025      0.45214
   95 1     3     -0.08000     14.42774      7.38428      0.44971
   96 1     4     -0.18500     -5.44173     28.12462      1.00121
   97 1     6      0.04900     -5.53255     30.84061      0.85267
   98 1     6      0.04700     14.04599      2.53518      1.65524
   99 1     6      0.03100     13.92238      4.94505      1.62000
  100 1     6      0.04900     13.52179      6.79683      0.45297
  101 1     6      0.01800     14.09762      0.44451      0.96271
  102 1     1     -0.02800     -6.67328     28.61155      1.53550
  103 1     6      0.04200     -7.33427     27.74865      1.75786
  104 1     6      0.03500     -7.19823     29.26493      0.81091
  105 1     6      0.03800     -6.49277     29.17094      2.47214
  106 1     3      0.11400     26.33699     13.05907      0.90754
  107 1     3     -0.08300     25.21698     12.20400      0.87116
  108 1     3     -0.01900     23.91007     12.71182      0.85449
  109 1     5      0.03800     22.78893     11.74122      0.82599
  110 1     2     -0.11300     21.57246     12.12110      0.57832
  111 1     3      0.08400     20.41025     11.27778      0.53816
  112 1     3     -0.07000     20.37822     10.00171      1.12777
  113 1     3     -0.01800     19.20659      9.24128      1.10269
  114 1     3     -0.01300     18.04174      9.72756      0.47472
  115 1     3      0.03800     16.78683      8.91427      0.45214
  116 1     3     -0.08100     16.84298      7.50895      0.44971
  117 1     4     -0.18700     27.65823     12.56822      1.00121
  118 1     6      0.05000     25.35152     11.13157      0.85267
  119 1     6      0.04600     21.23292      9.60354      1.65524
  120 1     6      0.03600     19.20772      8.29157      1.62000
  121 1     6      0.05300     17.80433      7.01875      0.45297
  122 1     6      0.01800     23.01806     10.69294      0.96271
  123 1     1     -0.02800     27.85268     11.25755      1.53550
  124 1     6      0.04100     28.93010     11.11721      1.75786
  125 1     6      0.03400     27.54894     10.47689      0.81091
  126 1     6      0.03600     27.27761     11.13484      2.47214
  127 1     3      0.11300     44.06707     12.18050      0.90754
  128 1     3     -0.08300     42.76694     12.72357      0.87116
  129 1     3     -0.02000     42.55326     14.10931      0.85449
  130 1     5      0.03800     41.15213     14.59493      0.82599
  131 1     2     -0.11400     40.87288     15.83837      0.57832
  132 1     3      0.08500     39.56144     16.42322      0.53816
  133 1     3     -0.07400     38.43956     15.81292      1.12777
  134 1     3     -0.01900     37.19519     16.44737      1.10269
  135 1     3     -0.01600     37.03428     17.69864      0.47472
  136 1     3      0.03700     35.70249     18.37878      0.45214
  137 1     3     -0.07700     34.51390     17.62815      0.44971
  138 1     4     -0.18700     44.30223     10.79150      1.00121
  139 1     6      0.05100     41.90508     12.07019      0.85267
  140 1     6      0.04800     38.52209     14.87365      1.65524
  141 1     6      0.03100     36.37328     15.97153      1.62000
  142 1     6      0.04900     34.56930     16.55050      0.45297
  143 1     6      0.02000     40.35886     13.87237      0.96271
  144 1     1     -0.02800     43.26513      9.96776      1.53550
  145 1     6      0.04200     43.68231      8.96453      1.75786
  146 1     6      0.03600     42.43719      9.84048      0.81091
  147 1     6      0.03700     42.87095     10.40379      2.47214
  148 1     3      0.12100     35.55438     30.77990      0.90754
  149 1     3     -0.07500     35.73452     29.38177      0.87116
  150 1     3     -0.01600     34.64127     28.50385      0.85449
  151 1     5      0.03800     34.92090     27.04827      0.82599
  152 1     2     -0.11300     33.98405     26.18407      0.57832
  153 1     3      0.08600     34.13328     24.75590      0.53816
  154 1     3     -0.07400     35.22238     24.09012      1.12777
  155 1     3     -0.01800     35.29511     22.69525      1.10269
  156 1     3     -0.01500     34.29193     21.93026      0.47472
  157 1     3      0.03900     34.36881     20.43682      0.45214
  158 1     3     -0.07700     35.61355     19.78214      0.44971
  159 1     4     -0.18000     36.63972     31.67805      1.00121
  160 1     6      0.05600     36.73091     28.96272      0.85267
  161 1     6      0.04800     35.99455     24.63123      1.65524
  162 1     6      0.03600     36.11815     22.22137      1.62000
  163 1     6      0.05100     36.51875     20.36959      0.45297
  164 1     6      0.02300     35.94367     26.72191      0.96271
  165 1     1     -0.03400     37.87202     31.19112      1.53550
  166 1     6      0.05000     38.53188     32.05468      1.75786
  167 1     6      0.04100     38.39584     30.53840      0.81091
  168 1     6      0.05100     37.69113     30.63239      2.47214
  169 1     3      0.12000     61.38827     14.10800      0.90754
  170 1     3     -0.07600     62.50941     14.96242      0.87116
  171 1     3     -0.01500     63.81633     14.45460      0.85449
  172 1     5      0.04300     64.93670     15.42520      0.82599
  173 1     2     -0.11300     66.15393     15.04531      0.57832
  174 1     3      0.08600     29.63104     15.88863      0.53816
  175 1     3     -0.06800     29.66270     17.16536      1.12777
  176 1     3     -0.01400     30.83433     17.92579      1.10269
  177 1     3     -0.01100     31.99842     17.43951      0.47472
  178 1     3      0.04100     33.25333     18.25280      0.45214
  179 1     3     -0.07600     33.19831     19.65747      0.44971
  180 1     4     -0.18600     60.06779     14.59885      1.00121
  181 1     6      0.05800     62.37374     16.03550      0.85267
  182 1     6      0.05100     28.80800     17.56353      1.65524
  183 1     6      0.03400     30.83320     18.87550      1.62000
  184 1     6      0.04800     32.23659     20.14832      0.45297
  185 1     6      0.02400     64.70833     16.47348      0.96271
  186 1     1     -0.02300     59.87371     15.90887      1.53550
  187 1     6      0.03800     58.79554     16.04920      1.75786
  188 1     6      0.03800     60.17670     16.68953      0.81091
  189 1     6      0.02900     60.44765     16.03223      2.47214
  190 1     3      0.11400     43.65857     14.98592      0.90754
  191 1     3     -0.08300     44.95945     14.44285      0.87116
  192 1     3     -0.02100     45.17313     13.05711      0.85449
  193 1     5      0.03700     46.57388     12.57214      0.82599
  194 1     2     -0.11500     46.85351     11.32804      0.57832
  195 1     3      0.08800     48.16495     10.74320      0.53816
  196 1     3     -0.07300     49.28570     11.35415      1.12777
  197 1     3     -0.01600     50.53007     10.71970      1.10269
  198 1     3     -0.01500     50.69136      9.46778      0.47472
  199 1     3      0.03800     52.02315      8.78764      0.45214
  200 1     3     -0.08000     53.21249      9.53827      0.44971
  201 1     4     -0.18300     43.42303     16.37557      1.00121
  202 1     6      0.05600     45.82056     15.09623      0.85267
  203 1     6      0.05700     49.20317     12.29342      1.65524
  204 1     6      0.03200     51.35198     11.19554      1.62000
  205 1     6      0.05100     53.15596     10.61657      0.45297
  206 1     6      0.02800     47.36753     13.29405      0.96271
  207 1     1     -0.03300     44.46126     17.19865      1.53550
  208 1     6      0.05500     44.04371     18.20254      1.75786
  209 1     6      0.04500     45.28882     17.32659      0.81091
  210 1     6      0.04800     44.85469     16.76263      2.47214
  211 1     3      0.11600     33.32908     29.02342      0.90754
  212 1     3     -0.08200     33.14932     30.42091      0.87116
  213 1     3     -0.02100     34.24257     31.29882      0.85449
  214 1     5      0.03300     52.80436      0.11880      0.82599
  215 1     2     -0.11400     53.74234      0.98235      0.57832
  216 1     3      0.08500     53.59311      2.41051      0.53816
  217 1     3     -0.07400     52.50326      3.07629      1.12777
  218 1     3     -0.01800     52.43053      4.47117      1.10269
  219 1     3     -0.01600     53.43408      5.23681      0.47472
  220 1     3      0.03800     53.35720      6.73025      0.45214
  221 1     3     -0.08000     52.11284      7.38428      0.44971
  222 1     4     -0.18500     32.24337     28.12462      1.00121
  223 1     6      0.04900     32.15255     30.84061      0.85267
  224 1     6      0.04700     51.73109      2.53518      1.65524
  225 1     6      0.03100     51.60748      4.94505      1.62000
  226 1     6      0.04900     51.20689      6.79683      0.45297
  227 1     6      0.01800     51.78272      0.44451      0.96271
  228 1     1     -0.02800     31.01182     28.61155      1.53550
  229 1     6      0.04200     30.35083     27.74865      1.75786
  230 1     6      0.03500     30.48687     29.26493      0.81091
  231 1     6      0.03800     31.19233     29.17094      2.47214
  232 1     3      0.11400     64.02209     13.05907      0.90754
  233 1     3     -0.08300     62.90208     12.20400      0.87116
  234 1     3     -0.01900     61.59517     12.71182      0.85449
  235 1     5      0.03800     60.47403     11.74122      0.82599
  236 1     2     -0.11300     59.25756     12.12110      0.57832
  237 1     3      0.08400     58.09535     11.27778      0.53816
  238 1     3     -0.07000     58.06332     10.00171      1.12777
  239 1     3     -0.01800     56.89169      9.24128      1.10269
  240 1     3     -0.01300     55.72684      9.72756      0.47472
  241 1     3      0.03800     54.47193      8.91427      0.45214
  242 1     3     -0.08100     54.52808      7.50895      0.44971
  243 1     4     -0.18700     65.34333     12.56822      1.00121
  244 1     6      0.05000     63.03662     11.13157      0.85267
  245 1     6      0.04600     58.91802      9.60354      1.65524
  246 1     6      0.03600     56.89282      8.29157      1.62000
  247 1     6      0.05300     55.48943      7.01875      0.45297
  248 1     6      0.01800     60.70316     10.69294      0.96271
  249 1     1     -0.02800     65.53778     11.25755      1.53550
  250 1     6      0.04100     66.61520     11.11721      1.75786
  251 1     6      0.03400     65.23404     10.47689      0.81091
  252 1     6      0.03600     64.96271     11.13484      2.47214
  253 1     3      0.11300    -12.46058     44.81676      0.90754
  254 1     3     -0.08300    -13.76071     45.35982      0.87116
  255 1     3     -0.02000    -13.97439     46.74556      0.85449
  256 1     5      0.03800    -15.37552     47.23119      0.82599
  257 1     2     -0.11400    -15.65477     48.47463      0.57832
  258 1     3      0.08500    -16.96621     49.05947      0.53816
  259 1     3     -0.07400    -18.08809     48.44917      1.12777
  260 1     3     -0.01900    -19.33246     49.08362      1.10269
  261 1     3     -0.01600    -19.49337     50.33489      0.47472
  262 1     3      0.03700    -20.82516     51.01503      0.45214
  263 1     3     -0.07700    -22.01375     50.26440      0.44971
  264 1     4     -0.18700    -12.22542     43.42776      1.00121
  265 1     6      0.05100    -14.62257     44.70645      0.85267
  266 1     6      0.04800    -18.00556     47.50990      1.65524
  267 1     6      0.03100    -20.15437     48.60778      1.62000
  268 1     6      0.04900    -21.95835     49.18675      0.45297
  269 1     6      0.02000    -16.16879     46.50862      0.96271
  270 1     1     -0.02800    -13.26252     42.60402      1.53550
  271 1     6      0.04200    -12.84534     41.60078      1.75786
  272 1     6      0.03600    -14.09046     42.47674      0.81091
  273 1     6      0.03700    -13.65670     43.04004      2.47214
  274 1     3      0.12100    -20.97327     63.41616      0.90754
  275 1     3     -0.07500    -20.79313     62.01802      0.87116
  276 1     3     -0.01600    -21.88638     61.14011      0.85449
  277 1     5      0.03800    -21.60675     59.68453      0.82599
  278 1     2     -0.11300    -22.54360     58.82032      0.57832
  279 1     3      0.08600    -22.39437     57.39216      0.53816
  280 1     3     -0.07400    -21.30527     56.72638      1.12777
  281 1     3     -0.01800    -21.23254     55.33150      1.10269
  282 1     3     -0.01500    -22.23572     54.56651      0.47472
  283 1     3      0.03900    -22.15884     53.07308      0.45214
  284 1     3     -0.07700    -20.91410     52.41839      0.44971
  285 1     4     -0.18000    -19.88793     64.31431      1.00121
  286 1     6      0.05600    -19.79674     61.59897      0.85267
  287 1     6      0.04800    -20.53310     57.26749      1.65524
  288 1     6      0.03600    -20.40950     54.85763      1.62000
  289 1     6      0.05100    -20.00890     53.00585      0.45297
  290 1     6      0.02300    -20.58398     59.35817      0.96271
  291 1     1     -0.03400    -18.65563     63.82737      1.53550
  292 1     6      0.05000    -17.99577     64.69093      1.75786
  293 1     6      0.04100    -18.13181     63.17465      0.81091
  294 1     6      0.05100    -18.83652     63.26864      2.47214
  295 1     3      0.12000      4.86062     46.74425      0.90754
  296 1     3     -0.07600      5.98176     47.59867      0.87116
  297 1     3     -0.01500      7.28868     47.09085      0.85449
  298 1     5      0.04300      8.40905     48.06145      0.82599
  299 1     2     -0.11300      9.62628     47.68157      0.57832
  300 1     3      0.08600    -26.89661     48.52489      0.53816
  301 1     3     -0.06800    -26.86495     49.80162      1.12777
  302 1     3     -0.01400    -25.69332     50.56204      1.10269
  303 1     3     -0.01100    -24.52923     50.07576      0.47472
  304 1     3      0.04100    -23.27432     50.88906      0.45214
  305 1     3     -0.07600    -23.32934     52.29372      0.44971
  306 1     4     -0.18600      3.54014     47.23510      1.00121
  307 1     6      0.05800      5.84609     48.67175      0.85267
  308 1     6      0.05100    -27.71965     50.19978      1.65524
  309 1     6      0.03400    -25.69445     51.51176      1.62000
  310 1     6      0.04800    -24.29106     52.78457      0.45297
  311 1     6      0.02400      8.18068     49.10973      0.96271
  312 1     1     -0.02300      3.34606     48.54512      1.53550
  313 1     6      0.03800      2.26789     48.68546      1.75786
  314 1     6      0.03800      3.64905     49.32578      0.81091
  315 1     6      0.02900      3.92000     48.66849      2.47214
  316 1     3      0.11400    -12.86908     47.62217      0.90754
  317 1     3     -0.08300    -11.56820     47.07910      0.87116
  318 1     3     -0.02100    -11.35452     45.69337      0.85449
  319 1     5      0.03700     -9.95377     45.20839      0.82599
  320 1     2     -0.11500     -9.67414     43.96430      0.57832
  321 1     3      0.08800     -8.36270     43.37946      0.53816
  322 1     3     -0.07300     -7.24195     43.99041      1.12777
  323 1     3     -0.01600     -5.99758     43.35596      1.10269
  324 1     3     -0.01500     -5.83629     42.10403      0.47472
  325 1     3      0.03800     -4.50450     41.42389      0.45214
  326 1     3     -0.08000     -3.31516     42.17453      0.44971
  327 1     4     -0.18300    -13.10462     49.01182      1.00121
  328 1     6      0.05600    -10.70709     47.73248      0.85267
  329 1     6      0.05700     -7.32448     44.92968      1.65524
  330 1     6      0.03200     -5.17567     43.83179      1.62000
  331 1     6      0.05100     -3.37169     43.25283      0.45297
  332 1     6      0.02800     -9.16012     45.93031      0.96271
  333 1     1     -0.03300    -12.06639     49.83491      1.53550
  334 1     6      0.05500    -12.48394     50.83880      1.75786
  335 1     6      0.04500    -11.23883     49.96284      0.81091
  336 1     6      0.04800    -11.67296     49.39889      2.47214
  337 1     3      0.11600    -23.19857     61.65967      0.90754
  338 1     3     -0.08200    -23.37833     63.05716      0.87116
  339 1     3     -0.02100    -22.28508     63.93507      0.85449
  340 1     5      0.03300     -3.72329     32.75505      0.82599
  341 1     2     -0.11400     -2.78531     33.61861      0.57832
  342 1     3      0.08500     -2.93454     35.04677      0.53816
  343 1     3     -0.07400     -4.02439     35.71255      1.12777
  344 1     3     -0.01800     -4.09712     37.10742      1.10269
  345 1     3     -0.01600     -3.09357     37.87307      0.47472
  346 1     3      0.03800     -3.17045     39.36650      0.45214
  347 1     3     -0.08000     -4.41481     40.02053      0.44971
  348 1     4     -0.18500    -24.28428     60.76087      1.00121
  349 1     6      0.04900    -24.37510     63.47686      0.85267
  350 1     6      0.04700     -4.79656     35.17144      1.65524
  351 1     6      0.03100     -4.92017     37.58130      1.62000
  352 1     6      0.04900     -5.32076     39.43308      0.45297
  353 1     6      0.01800     -4.74493     33.08076      0.96271
  354 1     1     -0.02800    -25.51583     61.24781      1.53550
  355 1     6      0.04200    -26.17682     60.38490      1.75786
  356 1     6      0.03500    -26.04078     61.90118      0.81091
  357 1     6      0.03800    -25.33532     61.80719      2.47214
  358 1     3      0.11400      7.49444     45.69532      0.90754
  359 1     3     -0.08300      6.37443     44.84025      0.87116
  360 1     3     -0.01900      5.06752     45.34807      0.85449
  361 1     5      0.03800      3.94638     44.37747      0.82599
  362 1     2     -0.11300      2.72991     44.75736      0.57832
  363 1     3      0.08400      1.56770     43.91404      0.53816
  364 1     3     -0.07000      1.53567     42.63796      1.12777
  365 1     3     -0.01800      0.36404     41.87754      1.10269
  366 1     3     -0.01300     -0.80081     42.36382      0.47472
  367 1     3      0.03800     -2.05572     41.55052      0.45214
  368 1     3     -0.08100     -1.99957     40.14520      0.44971
  369 1     4     -0.18700      8.81568     45.20448      1.00121
  370 1     6      0.05000      6.50897     43.76783      0.85267
  371 1     6      0.04600      2.39037     42.23980      1.65524
  372 1     6      0.03600      0.36517     40.92782      1.62000
  373 1     6      0.05300     -1.03822     39.65501      0.45297
  374 1     6      0.01800      4.17551     43.32920      0.96271
  375 1     1     -0.02800      9.01013     43.89380      1.53550
  376 1     6      0.04100     10.08755     43.75347      1.75786
  377 1     6      0.03400      8.70639     43.11314      0.81091
  378 1     6      0.03600      8.43506     43.77109      2.47214
  379 1     3      0.11300     25.22452     44.81676      0.90754
  380 1     3     -0.08300     23.92439     45.35982      0.87116
  381 1     3     -0.02000     23.71071     46.74556      0.85449
  382 1     5      0.03800     22.30958     47.23119      0.82599
  383 1     2     -0.11400     22.03033     48.47463      0.57832
  384 1     3      0.08500     20.71889     49.05947      0.53816
  385 1     3     -0.07400     19.59701     48.44917      1.12777
  386 1     3     -0.01900     18.35264     49.08362      1.10269
  387 1     3     -0.01600     18.19173     50.33489      0.47472
  388 1     3      0.03700     16.85994     51.01503      0.45214
  389 1     3     -0.07700     15.67135     50.26440      0.44971
  390 1     4     -0.18700     25.45968     43.42776      1.00121
  391 1     6      0.05100     23.06253     44.70645      0.85267
  392 1     6      0.04800     19.67954     47.50990      1.65524
  393 1     6      0.03100     17.53073     48.60778      1.62000
  394 1     6      0.04900     15.72675     49.18675      0.45297
  395 1     6      0.02000     21.51631     46.50862      0.96271
  396 1     1     -0.02800     24.42258     42.60402      1.53550
  397 1     6      0.04200     24.83976     41.60078      1.75786
  398 1     6      0.03600     23.59464     42.47674      0.81091