
    6000 atoms
    6480 bonds
    10560 angles
    14640 dihedrals
    2880 impropers

    6 atom types
    10 bond types
    14 angle types
    7 dihedral types
    2 improper types

0.00000000 75.3702 xlo xhi
0.00000000 65.27250789 ylo yhi
0.00000000 37.893 zlo zhi
-37.6851 0.0 0.0 xy xz yz 

Masses 

    1    14.0067
    2    12.0107
    3    12.0107
    4    15.9994
    5    1.00794
    6    12.0107

Pair Coeffs

    1       0.06900      3.26069 # N_2 N_2
    2       0.10500      3.43085 # C_R C_R
    3       0.10500      3.43085 # C_2 C_2
    4       0.06000      3.11815 # O_3 O_3
    5       0.04400      2.57113 # H_ H_
    6       0.10500      3.43085 # C_3 C_3

Bond Coeffs

    1     462.65505      1.37926 # C_R C_R bond order=1.5
    2     572.46041      1.36631 # C_R O_3 bond order=1.0
    3     357.44038      1.08142 # C_R H_ bond order=1.0
    4     389.26171      1.46100 # C_2 C_R bond order=1.0
    5     769.38234      1.28041 # C_2 N_2 bond order=2.0
    6     354.48390      1.08442 # C_2 H_ bond order=1.0
    7     578.29491      1.40825 # C_R N_2 bond order=1.0
    8     391.66951      1.45800 # C_R C_R bond order=1.0
    9     539.20166      1.39385 # C_3 O_3 bond order=1.0
    10    331.06939      1.10940 # C_3 H_ bond order=1.0

Angle Coeffs

    1  cosine/periodic        135.76992           -1            3 # C_R C_R O_3
    2  cosine/periodic        111.29751           -1            3 # C_R C_R C_R
    3  cosine/periodic         57.28902           -1            3 # C_R C_R H_
    4  cosine/periodic        101.85214           -1            3 # C_2 C_R C_R
    5  cosine/periodic        150.01499           -1            3 # C_R C_2 N_2
    6  cosine/periodic         51.27132           -1            3 # C_R C_2 H_
    7  cosine/periodic         86.74085           -1            3 # H_ C_2 N_2
    8  fourier                291.47740      0.36401      0.41847      0.28800 # C_2 N_2 C_R
    9  cosine/periodic        143.48201           -1            3 # C_R C_R N_2
    10 cosine/periodic        102.18328           -1            3 # C_R C_R C_R
    11 cosine/periodic        102.18328           -1            3 # C_R C_R C_R
    12 fourier                320.94891      0.30023      0.26733      0.26675 # C_3 O_3 C_R
    13 fourier                165.75867      0.34375      0.37500      0.28125 # H_ C_3 O_3
    14 fourier                 75.49653      0.34375      0.37500      0.28125 # H_ C_3 H_

Dihedral Coeffs

    1       3.36856           -1            2 # X C_R C_R X bond order=1.5
    2       0.23717           -1            2 # X C_R O_3 X bond order=1.0
    3       1.25000           -1            2 # X C_2 C_R X bond order=1.0
    4       9.74339           -1            2 # X C_2 N_2 X bond order=2.0
    5       2.50000           -1            2 # X C_R N_2 X bond order=1.0
    6       1.25000           -1            2 # X C_R C_R X bond order=1.0
    7       0.03255            1            3 # X C_3 O_3 X bond order=1.0

Improper Coeffs

    1       2.00000      1.00000     -1.00000      0.00000            1 # C_R X X X O_2 present=False
    2       2.00000      1.00000     -1.00000      0.00000            1 # C_2 X X X O_2 present=False

Atoms

    1 1     2      0.11700     28.61580      4.42809      0.65070
    2 1     2     -0.08000     27.31491      4.97115      0.61440
    3 1     2     -0.01600     27.10124      6.35689      0.59765
    4 1     3      0.04000     25.70048      6.84186      0.56923
    5 1     1     -0.11200     25.42086      8.08596      0.32148
    6 1     2      0.08700     24.10942      8.67080      0.28139
    7 1     2     -0.07200     22.98866      8.05985      0.87093
    8 1     2     -0.01700     21.74430      8.69430      0.84585
    9 1     2     -0.01200     21.58301      9.94622      0.21788
   10 1     2      0.04100     20.25122     10.62636      0.19530
   11 1     2     -0.07500     19.06188      9.87573      0.19288
   12 1     4     -0.18300     28.85134      3.03844      0.74437
   13 1     5      0.05400     26.45381      4.31778      0.59591
   14 1     5      0.05100     23.07120      7.12058      1.39840
   15 1     5      0.03300     20.92239      8.21846      1.36316
   16 1     5      0.05300     19.11840      8.79743      0.19621
   17 1     5      0.02300     24.90684      6.11995      0.70587
   18 1     6     -0.02900     27.81311      2.21535      1.27874
   19 1     5      0.04500     28.23066      1.21146      1.50109
   20 1     5      0.03900     26.98555      2.08741      0.55415
   21 1     5      0.04000     27.41968      2.65137      2.21530
   22 1     2      0.11600     20.10274     23.02684      0.65070
   23 1     2     -0.08100     20.28250     21.62935      0.61440
   24 1     2     -0.01700     19.18925     20.75144      0.59765
   25 1     3      0.03900     19.47001     19.29521      0.56923
   26 1     1     -0.11300     18.53202     18.43165      0.32148
   27 1     2      0.08700     18.68126     17.00349      0.28139
   28 1     2     -0.07300     19.77111     16.33771      0.87093
   29 1     2     -0.01700     19.84384     14.94284      0.84585
   30 1     2     -0.01600     18.84029     14.17719      0.21788
   31 1     2      0.04000     18.91717     12.68375      0.19530
   32 1     2     -0.07700     20.16153     12.02972      0.19288
   33 1     4     -0.18400     21.18845     23.92564      0.74437
   34 1     5      0.05300     21.27927     21.20965      0.59591
   35 1     5      0.05000     20.54328     16.87882      1.39840
   36 1     5      0.03200     20.66689     14.46896      1.36316
   37 1     5      0.05300     21.06748     12.61718      0.19621
   38 1     5      0.02200     20.49165     18.96950      0.70587
   39 1     6     -0.02900     22.42000     23.43870      1.27874
   40 1     5      0.04400     23.08099     24.30161      1.50109
   41 1     5      0.03700     22.94495     22.78533      0.55415
   42 1     5      0.04000     22.23948     22.87932      2.21530
   43 1     2      0.11600      8.25228      6.35493      0.65070
   44 1     2     -0.08100      9.37228      7.21000      0.61440
   45 1     2     -0.01700     10.67920      6.70218      0.59765
   46 1     3      0.03900     11.80034      7.67278      0.56923
   47 1     1     -0.11300     13.01681      7.29290      0.32148
   48 1     2      0.08700     14.17902      8.13622      0.28139
   49 1     2     -0.07300     14.21105      9.41230      0.87093
   50 1     2     -0.01900     15.38268     10.17272      0.84585
   51 1     2     -0.01400     16.54753      9.68644      0.21788
   52 1     2      0.04100     17.80244     10.49974      0.19530
   53 1     2     -0.07700     17.74629     11.90505      0.19288
   54 1     4     -0.18400      6.93104      6.84578      0.74437
   55 1     5      0.05300      9.23775      8.28243      0.59591
   56 1     5      0.05000     13.35635      9.81046      1.39840
   57 1     5      0.03400     15.38155     11.12244      1.36316
   58 1     5      0.05200     16.78494     12.39525      0.19621
   59 1     5      0.02200     11.57121      8.72106      0.70587
   60 1     6     -0.03000      6.73659      8.15645      1.27874
   61 1     5      0.04400      5.65917      8.29679      1.50109
   62 1     5      0.03700      7.04033      8.93711      0.55415
   63 1     5      0.04000      7.31166      8.27916      2.21530
   64 1     2      0.11600     28.20730      7.23350      0.65070
   65 1     2     -0.08100     29.50743      6.69043      0.61440
   66 1     2     -0.01700     29.72111      5.30470      0.59765
   67 1     3      0.03900     31.12224      4.81907      0.56923
   68 1     1     -0.11300     31.40149      3.57563      0.32148
   69 1     2      0.08600     32.71293      2.99079      0.28139
   70 1     2     -0.07300     33.83481      3.60108      0.87093
   71 1     2     -0.01700     35.07918      2.96664      0.84585
   72 1     2     -0.01500     35.24009      1.71536      0.21788
   73 1     2      0.03800     36.57188      1.03522      0.19530
   74 1     2     -0.07800      0.07537      1.78586      0.19288
   75 1     4     -0.18400     27.97214      8.62250      0.74437
   76 1     5      0.05200     30.36929      7.34381      0.59591
   77 1     5      0.04900     33.75228      4.54036      1.39840
   78 1     5      0.03300     -1.78401      3.44247      1.36316
   79 1     5      0.04900      0.01997      2.86350      0.19621
   80 1     5      0.02000     31.91551      5.54164      0.70587
   81 1     6     -0.03000     29.00924      9.44624      1.27874
   82 1     5      0.04400     28.59206     10.44948      1.50109
   83 1     5      0.03700     29.83718      9.57352      0.55415
   84 1     5      0.03900     29.40342      9.01022      2.21530
   85 1     2      0.11600     17.87743     21.27035      0.65070
   86 1     2     -0.08100     17.69730     22.66849      0.61440
   87 1     2     -0.01700     18.79054     23.54640      0.59765
   88 1     3      0.03900     18.51092     25.00198      0.56923
   89 1     1     -0.11300     19.44777     25.86619      0.32148
   90 1     2      0.08600     19.29854     27.29435      0.28139
   91 1     2     -0.07300     18.20944     27.96013      0.87093
   92 1     2     -0.01700     18.13671     29.35500      0.84585
   93 1     2     -0.01500     19.13989     30.12000      0.21788
   94 1     2      0.03800     19.06301     31.61343      0.19530
   95 1     2     -0.07800     17.81827     32.26812      0.19288
   96 1     4     -0.18400     16.79210     20.37220      0.74437
   97 1     5      0.05200     16.70091     23.08754      0.59591
   98 1     5      0.04900     17.43727     27.41902      1.39840
   99 1     5      0.03300     17.31367     29.82888      1.36316
  100 1     5      0.04900     16.91307     31.68066      0.19621
  101 1     5      0.02000     17.48815     25.32834      0.70587
  102 1     6     -0.03000     15.55980     20.85914      1.27874
  103 1     5      0.04400     14.89993     19.99558      1.50109
  104 1     5      0.03700     15.03598     21.51186      0.55415
  105 1     5      0.03900     15.74069     21.41787      2.21530
  106 1     2      0.11600     10.88609      5.30600      0.65070
  107 1     2     -0.08100      9.76496      4.45159      0.61440
  108 1     2     -0.01700      8.45804      4.95941      0.59765
  109 1     3      0.03900      7.33767      3.98880      0.56923
  110 1     1     -0.11300      6.12044      4.36869      0.32148
  111 1     2      0.08600      4.95823      3.52537      0.28139
  112 1     2     -0.07300      4.92657      2.24864      0.87093
  113 1     2     -0.01700      3.75494      1.48821      0.84585
  114 1     2     -0.01500      2.59085      1.97449      0.21788
  115 1     2      0.03800      1.33594      1.16120      0.19530
  116 1     2     -0.07800    -17.45159     32.39279      0.19288
  117 1     4     -0.18400     12.20658      4.81515      0.74437
  118 1     5      0.05200      9.90063      3.37851      0.59591
  119 1     5      0.04900      5.78127      1.85048      1.39840
  120 1     5      0.03300      3.75607      0.53850      1.36316
  121 1     5      0.04900    -16.48987     31.90194      0.19621
  122 1     5      0.02000      7.56604      2.94053      0.70587
  123 1     6     -0.02900     12.40066      3.50513      1.27874
  124 1     5      0.04400     13.47883      3.36480      1.50109
  125 1     5      0.03700     12.09767      2.72447      0.55415
  126 1     5      0.03900     11.82671      3.38177      2.21530
  127 1     2      0.11600     66.30090      4.42809      0.65070
  128 1     2     -0.08100     65.00001      4.97115      0.61440
  129 1     2     -0.01700     64.78634      6.35689      0.59765
  130 1     3      0.03900     63.38558      6.84186      0.56923
  131 1     1     -0.11300     63.10596      8.08596      0.32148
  132 1     2      0.08600     61.79452      8.67080      0.28139
  133 1     2     -0.07300     60.67376      8.05985      0.87093
  134 1     2     -0.01800     59.42940      8.69430      0.84585
  135 1     2     -0.01300     59.26811      9.94622      0.21788
  136 1     2      0.04000     57.93632     10.62636      0.19530
  137 1     2     -0.07600     56.74698      9.87573      0.19288
  138 1     4     -0.18400     66.53644      3.03844      0.74437
  139 1     5      0.05300     64.13891      4.31778      0.59591
  140 1     5      0.05000     60.75630      7.12058      1.39840
  141 1     5      0.03200     58.60749      8.21846      1.36316
  142 1     5      0.05200     56.80350      8.79743      0.19621
  143 1     5      0.02200     62.59194      6.11995      0.70587
  144 1     6     -0.03000     65.49821      2.21535      1.27874
  145 1     5      0.04400     65.91576      1.21146      1.50109
  146 1     5      0.03800     64.67065      2.08741      0.55415
  147 1     5      0.04000     65.10478      2.65137      2.21530
  148 1     2      0.11600     57.78784     23.02684      0.65070
  149 1     2     -0.08100     57.96760     21.62935      0.61440
  150 1     2     -0.01700     56.87435     20.75144      0.59765
  151 1     3      0.03900     57.15511     19.29521      0.56923
  152 1     1     -0.11300     56.21712     18.43165      0.32148
  153 1     2      0.08700     56.36636     17.00349      0.28139
  154 1     2     -0.07300     57.45621     16.33771      0.87093
  155 1     2     -0.01700     57.52894     14.94284      0.84585
  156 1     2     -0.01600     56.52539     14.17719      0.21788
  157 1     2      0.04000     56.60227     12.68375      0.19530
  158 1     2     -0.07700     57.84663     12.02972      0.19288
  159 1     4     -0.18400     58.87355     23.92564      0.74437
  160 1     5      0.05300     58.96437     21.20965      0.59591
  161 1     5      0.05000     58.22838     16.87882      1.39840
  162 1     5      0.03200     58.35199     14.46896      1.36316
  163 1     5      0.05300     58.75258     12.61718      0.19621
  164 1     5      0.02200     58.17675     18.96950      0.70587
  165 1     6     -0.02900     60.10510     23.43870      1.27874
  166 1     5      0.04400     60.76609     24.30161      1.50109
  167 1     5      0.03700     60.63005     22.78533      0.55415
  168 1     5      0.04000     59.92458     22.87932      2.21530
  169 1     2      0.11600     45.93738      6.35493      0.65070
  170 1     2     -0.08100     47.05738      7.21000      0.61440
  171 1     2     -0.01700     48.36430      6.70218      0.59765
  172 1     3      0.03900     49.48544      7.67278      0.56923
  173 1     1     -0.11300     50.70191      7.29290      0.32148
  174 1     2      0.08700     51.86412      8.13622      0.28139
  175 1     2     -0.07300     51.89615      9.41230      0.87093
  176 1     2     -0.01900     53.06778     10.17272      0.84585
  177 1     2     -0.01400     54.23263      9.68644      0.21788
  178 1     2      0.04100     55.48754     10.49974      0.19530
  179 1     2     -0.07700     55.43139     11.90505      0.19288
  180 1     4     -0.18400     44.61614      6.84578      0.74437
  181 1     5      0.05300     46.92285      8.28243      0.59591
  182 1     5      0.05000     51.04145      9.81046      1.39840
  183 1     5      0.03400     53.06665     11.12244      1.36316
  184 1     5      0.05200     54.47004     12.39525      0.19621
  185 1     5      0.02200     49.25631      8.72106      0.70587
  186 1     6     -0.03000     44.42169      8.15645      1.27874
  187 1     5      0.04400     43.34427      8.29679      1.50109
  188 1     5      0.03700     44.72543      8.93711      0.55415
  189 1     5      0.04000     44.99676      8.27916      2.21530
  190 1     2      0.11600     65.89240      7.23350      0.65070
  191 1     2     -0.08100     67.19253      6.69043      0.61440
  192 1     2     -0.01700     67.40621      5.30470      0.59765
  193 1     3      0.03900     68.80734      4.81907      0.56923
  194 1     1     -0.11300     69.08659      3.57563      0.32148
  195 1     2      0.08600     70.39803      2.99079      0.28139
  196 1     2     -0.07300     71.51991      3.60108      0.87093
  197 1     2     -0.01700     72.76428      2.96664      0.84585
  198 1     2     -0.01500     72.92519      1.71536      0.21788
  199 1     2      0.03800     74.25698      1.03522      0.19530
  200 1     2     -0.07800     37.76047      1.78586      0.19288
  201 1     4     -0.18400     65.65724      8.62250      0.74437
  202 1     5      0.05200     68.05439      7.34381      0.59591
  203 1     5      0.04900     71.43738      4.54036      1.39840
  204 1     5      0.03300     35.90109      3.44247      1.36316
  205 1     5      0.04900     37.70507      2.86350      0.19621
  206 1     5      0.02000     69.60061      5.54164      0.70587
  207 1     6     -0.03000     66.69434      9.44624      1.27874
  208 1     5      0.04400     66.27716     10.44948      1.50109
  209 1     5      0.03700     67.52228      9.57352      0.55415
  210 1     5      0.03900     67.08852      9.01022      2.21530
  211 1     2      0.11600     55.56253     21.27035      0.65070
  212 1     2     -0.08100     55.38240     22.66849      0.61440
  213 1     2     -0.01700     56.47564     23.54640      0.59765
  214 1     3      0.03900     56.19602     25.00198      0.56923
  215 1     1     -0.11300     57.13287     25.86619      0.32148
  216 1     2      0.08600     56.98364     27.29435      0.28139
  217 1     2     -0.07300     55.89454     27.96013      0.87093
  218 1     2     -0.01700     55.82181     29.35500      0.84585
  219 1     2     -0.01500     56.82499     30.12000      0.21788
  220 1     2      0.03800     56.74811     31.61343      0.19530
  221 1     2     -0.07800     55.50337     32.26812      0.19288
  222 1     4     -0.18400     54.47720     20.37220      0.74437
  223 1     5      0.05200     54.38601     23.08754      0.59591
  224 1     5      0.04900     55.12237     27.41902      1.39840
  225 1     5      0.03300     54.99877     29.82888      1.36316
  226 1     5      0.04900     54.59817     31.68066      0.19621
  227 1     5      0.02000     55.17325     25.32834      0.70587
  228 1     6     -0.03000     53.24490     20.85914      1.27874
  229 1     5      0.04400     52.58503     19.99558      1.50109
  230 1     5      0.03700     52.72108     21.51186      0.55415
  231 1     5      0.03900     53.42579     21.41787      2.21530
  232 1     2      0.11600     48.57119      5.30600      0.65070
  233 1     2     -0.08100     47.45006      4.45159      0.61440
  234 1     2     -0.01700     46.14314      4.95941      0.59765
  235 1     3      0.03900     45.02277      3.98880      0.56923
  236 1     1     -0.11300     43.80554      4.36869      0.32148
  237 1     2      0.08600     42.64333      3.52537      0.28139
  238 1     2     -0.07300     42.61167      2.24864      0.87093
  239 1     2     -0.01700     41.44004      1.48821      0.84585
  240 1     2     -0.01500     40.27595      1.97449      0.21788
  241 1     2      0.03800     39.02104      1.16120      0.19530
  242 1     2     -0.07800     20.23351     32.39279      0.19288
  243 1     4     -0.18400     49.89168      4.81515      0.74437
  244 1     5      0.05200     47.58573      3.37851      0.59591
  245 1     5      0.04900     43.46637      1.85048      1.39840
  246 1     5      0.03300     41.44117      0.53850      1.36316
  247 1     5      0.04900     21.19523     31.90194      0.19621
  248 1     5      0.02000     45.25114      2.94053      0.70587
  249 1     6     -0.02900     50.08576      3.50513      1.27874
  250 1     5      0.04400     51.16393      3.36480      1.50109
  251 1     5      0.03700     49.78277      2.72447      0.55415
  252 1     5      0.03900     49.51181      3.38177      2.21530
  253 1     2      0.11600      9.77325     37.06434      0.65070
  254 1     2     -0.08100      8.47236     37.60741      0.61440
  255 1     2     -0.01700      8.25869     38.99314      0.59765
  256 1     3      0.03900      6.85793     39.47812      0.56923
  257 1     1     -0.11300      6.57831     40.72221      0.32148
  258 1     2      0.08600      5.26687     41.30705      0.28139
  259 1     2     -0.07300      4.14611     40.69610      0.87093
  260 1     2     -0.01800      2.90175     41.33055      0.84585
  261 1     2     -0.01300      2.74046     42.58248      0.21788
  262 1     2      0.04000      1.40867     43.26262      0.19530
  263 1     2     -0.07600      0.21933     42.51198      0.19288
  264 1     4     -0.18400     10.00879     35.67469      0.74437
  265 1     5      0.05300      7.61126     36.95403      0.59591
  266 1     5      0.05000      4.22865     39.75683      1.39840
  267 1     5      0.03200      2.07984     40.85472      1.36316
  268 1     5      0.05200      0.27585     41.43368      0.19621
  269 1     5      0.02200      6.06429     38.75620      0.70587
  270 1     6     -0.03000      8.97056     34.85160      1.27874
  271 1     5      0.04400      9.38811     33.84771      1.50109
  272 1     5      0.03800      8.14300     34.72367      0.55415
  273 1     5      0.04000      8.57713     35.28762      2.21530
  274 1     2      0.11600      1.26019     55.66309      0.65070
  275 1     2     -0.08100      1.43995     54.26560      0.61440
  276 1     2     -0.01700      0.34670     53.38769      0.59765
  277 1     3      0.03900      0.62746     51.93146      0.56923
  278 1     1     -0.11300     -0.31053     51.06790      0.32148
  279 1     2      0.08700     -0.16129     49.63974      0.28139
  280 1     2     -0.07300      0.92856     48.97396      0.87093
  281 1     2     -0.01700      1.00129     47.57909      0.84585
  282 1     2     -0.01600     -0.00226     46.81344      0.21788
  283 1     2      0.04000      0.07462     45.32001      0.19530
  284 1     2     -0.07700      1.31898     44.66598      0.19288
  285 1     4     -0.18400      2.34590     56.56189      0.74437
  286 1     5      0.05300      2.43672     53.84590      0.59591
  287 1     5      0.05000      1.70073     49.51507      1.39840
  288 1     5      0.03200      1.82434     47.10521      1.36316
  289 1     5      0.05300      2.22493     45.25343      0.19621
  290 1     5      0.02200      1.64910     51.60575      0.70587
  291 1     6     -0.02900      3.57745     56.07496      1.27874
  292 1     5      0.04400      4.23844     56.93786      1.50109
  293 1     5      0.03700      4.10240     55.42158      0.55415
  294 1     5      0.04000      3.39693     55.51557      2.21530
  295 1     2      0.11600    -10.59027     38.99119      0.65070
  296 1     2     -0.08100     -9.47027     39.84626      0.61440
  297 1     2     -0.01700     -8.16335     39.33844      0.59765
  298 1     3      0.03900     -7.04221     40.30904      0.56923
  299 1     1     -0.11300     -5.82574     39.92915      0.32148
  300 1     2      0.08700     -4.66353     40.77247      0.28139
  301 1     2     -0.07300     -4.63150     42.04855      0.87093
  302 1     2     -0.01900     -3.45987     42.80897      0.84585
  303 1     2     -0.01400     -2.29502     42.32269      0.21788
  304 1     2      0.04100     -1.04011     43.13599      0.19530
  305 1     2     -0.07700     -1.09626     44.54131      0.19288
  306 1     4     -0.18400    -11.91151     39.48203      0.74437
  307 1     5      0.05300     -9.60480     40.91868      0.59591
  308 1     5      0.05000     -5.48620     42.44671      1.39840
  309 1     5      0.03400     -3.46100     43.75869      1.36316
  310 1     5      0.05200     -2.05761     45.03150      0.19621
  311 1     5      0.02200     -7.27134     41.35731      0.70587
  312 1     6     -0.03000    -12.10596     40.79271      1.27874
  313 1     5      0.04400    -13.18338     40.93304      1.50109
  314 1     5      0.03700    -11.80222     41.57337      0.55415
  315 1     5      0.04000    -11.53089     40.91542      2.21530
  316 1     2      0.11600      9.36475     39.86975      0.65070
  317 1     2     -0.08100     10.66488     39.32669      0.61440
  318 1     2     -0.01700     10.87856     37.94095      0.59765
  319 1     3      0.03900     12.27969     37.45532      0.56923
  320 1     1     -0.11300     12.55894     36.21188      0.32148
  321 1     2      0.08600     13.87038     35.62704      0.28139
  322 1     2     -0.07300     14.99226     36.23734      0.87093
  323 1     2     -0.01700     16.23663     35.60289      0.84585
  324 1     2     -0.01500     16.39754     34.35162      0.21788
  325 1     2      0.03800     17.72933     33.67148      0.19530
  326 1     2     -0.07800    -18.76718     34.42211      0.19288
  327 1     4     -0.18400      9.12959     41.25875      0.74437
  328 1     5      0.05200     11.52674     39.98006      0.59591
  329 1     5      0.04900     14.90973     37.17661      1.39840
  330 1     5      0.03300    -20.62656     36.07873      1.36316
  331 1     5      0.04900    -18.82258     35.49976      0.19621
  332 1     5      0.02000     13.07296     38.17789      0.70587
  333 1     6     -0.03000     10.16669     42.08249      1.27874
  334 1     5      0.04400      9.74951     43.08573      1.50109
  335 1     5      0.03700     10.99463     42.20977      0.55415
  336 1     5      0.03900     10.56087     41.64647      2.21530
  337 1     2      0.11600     -0.96512     53.90661      0.65070
  338 1     2     -0.08100     -1.14525     55.30474      0.61440
  339 1     2     -0.01700     -0.05201     56.18266      0.59765
  340 1     3      0.03900     -0.33163     57.63824      0.56923
  341 1     1     -0.11300      0.60522     58.50244      0.32148
  342 1     2      0.08600      0.45599     59.93061      0.28139
  343 1     2     -0.07300     -0.63311     60.59639      0.87093
  344 1     2     -0.01700     -0.70584     61.99126      0.84585
  345 1     2     -0.01500      0.29734     62.75625      0.21788
  346 1     2      0.03800      0.22046     64.24969      0.19530
  347 1     2     -0.07800     -1.02428     64.90437      0.19288
  348 1     4     -0.18400     -2.05045     53.00846      0.74437
  349 1     5      0.05200     -2.14164     55.72379      0.59591
  350 1     5      0.04900     -1.40528     60.05528      1.39840
  351 1     5      0.03300     -1.52888     62.46514      1.36316
  352 1     5      0.04900     -1.92948     64.31692      0.19621
  353 1     5      0.02000     -1.35440     57.96460      0.70587
  354 1     6     -0.03000     -3.28275     53.49539      1.27874
  355 1     5      0.04400     -3.94262     52.63183      1.50109
  356 1     5      0.03700     -3.80657     54.14811      0.55415
  357 1     5      0.03900     -3.10186     54.05412      2.21530
  358 1     2      0.11600     -7.95646     37.94226      0.65070
  359 1     2     -0.08100     -9.07759     37.08784      0.61440
  360 1     2     -0.01700    -10.38451     37.59566      0.59765
  361 1     3      0.03900    -11.50488     36.62506      0.56923
  362 1     1     -0.11300    -12.72211     37.00494      0.32148
  363 1     2      0.08600    -13.88432     36.16162      0.28139
  364 1     2     -0.07300    -13.91598     34.88489      0.87093
  365 1     2     -0.01700    -15.08761     34.12447      0.84585
  366 1     2     -0.01500    -16.25170     34.61075      0.21788
  367 1     2      0.03800    -17.50661     33.79745      0.19530
  368 1     2     -0.07800    -36.29414     65.02904      0.19288
  369 1     4     -0.18400     -6.63597     37.45141      0.74437
  370 1     5      0.05200     -8.94192     36.01476      0.59591
  371 1     5      0.04900    -13.06128     34.48673      1.39840
  372 1     5      0.03300    -15.08648     33.17475      1.36316
  373 1     5      0.04900    -35.33242     64.53819      0.19621
  374 1     5      0.02000    -11.27651     35.57678      0.70587
  375 1     6     -0.02900     -6.44189     36.14139      1.27874
  376 1     5      0.04400     -5.36372     36.00105      1.50109
  377 1     5      0.03700     -6.74488     35.36073      0.55415
  378 1     5      0.03900     -7.01584     36.01802      2.21530
  379 1     2      0.11600     47.45835     37.06434      0.65070
  380 1     2     -0.08100     46.15746     37.60741      0.61440
  381 1     2     -0.01700     45.94379     38.99314      0.59765
  382 1     3      0.03900     44.54303     39.47812      0.56923
  383 1     1     -0.11300     44.26341     40.72221      0.32148
  384 1     2      0.08600     42.95197     41.30705      0.28139
  385 1     2     -0.07300     41.83121     40.69610      0.87093
  386 1     2     -0.01800     40.58685     41.33055      0.84585
  387 1     2     -0.01300     40.42556     42.58248      0.21788
  388 1     2      0.04000     39.09377     43.26262      0.19530
  389 1     2     -0.07600     37.90443     42.51198      0.19288
  390 1     4     -0.18400     47.69389     35.67469      0.74437
  391 1     5      0.05300     45.29636     36.95403      0.59591
  392 1     5      0.05000     41.91375     39.75683      1.39840
  393 1     5      0.03200     39.76494     40.85472      1.36316
  394 1     5      0.05200     37.96095     41.43368      0.19621
  395 1     5      0.02200     43.74939     38.75620      0.70587
  396 1     6     -0.03000     46.65566     34.85160      1.27874
  397 1     5      0.04400     47.07321     33.84771      1.50109
  398 1     5      0.03800     45.82810     34.72367      0.55415