

6000 atoms
6480 bonds
10560 angles
14640 dihedrals
2880 impropers

6 atom types
10 bond types
14 angle types
7 dihedral types
2 improper types

0.00000000 75.3702 xlo xhi
0.00000000 65.27250789 ylo yhi
0.00000000 37.893 zlo zhi
-37.6851 0.0 0.0 xy xz yz 

0.00000000 75.37020000 xlo xhi
0.00000000 65.27250789 ylo yhi
0.00000000 37.46000000 zlo zhi
-37.68510000 0.00000000 5.71000000 xy xz yz

Masses 

    1    12.0107
    2    15.9994
    3    14.0067
    4    12.0107
    5    1.00794
    6    12.0107

Pair Coeffs

    1       0.10500      3.43085 # C_2 C_2
    2       0.06000      3.11815 # O_3 O_3
    3       0.06900      3.26069 # N_2 N_2
    4       0.10500      3.43085 # C_3 C_3
    5       0.04400      2.57113 # H_ H_
    6       0.10500      3.43085 # C_R C_R

Bond Coeffs

    1     462.65505      1.37926 # C_R C_R bond order=1.5
    2     572.46041      1.36631 # C_R O_3 bond order=1.0
    3     357.44038      1.08142 # C_R H_ bond order=1.0
    4     389.26171      1.46100 # C_2 C_R bond order=1.0
    5     769.38234      1.28041 # C_2 N_2 bond order=2.0
    6     354.48390      1.08442 # C_2 H_ bond order=1.0
    7     578.29491      1.40825 # C_R N_2 bond order=1.0
    8     391.66951      1.45800 # C_R C_R bond order=1.0
    9     539.20166      1.39385 # C_3 O_3 bond order=1.0
    10    331.06939      1.10940 # C_3 H_ bond order=1.0

Angle Coeffs

    1  cosine/periodic        135.76992           -1            3 # C_R C_R O_3
    2  cosine/periodic        111.29751           -1            3 # C_R C_R C_R
    3  cosine/periodic         57.28902           -1            3 # C_R C_R H_
    4  cosine/periodic        101.85214           -1            3 # C_2 C_R C_R
    5  cosine/periodic        150.01499           -1            3 # C_R C_2 N_2
    6  cosine/periodic         51.27132           -1            3 # C_R C_2 H_
    7  cosine/periodic         86.74085           -1            3 # H_ C_2 N_2
    8  fourier                291.47740      0.36401      0.41847      0.28800 # C_2 N_2 C_R
    9  cosine/periodic        143.48201           -1            3 # C_R C_R N_2
    10 cosine/periodic        102.18328           -1            3 # C_R C_R C_R
    11 cosine/periodic        102.18328           -1            3 # C_R C_R C_R
    12 fourier                320.94891      0.30023      0.26733      0.26675 # C_3 O_3 C_R
    13 fourier                165.75867      0.34375      0.37500      0.28125 # H_ C_3 O_3
    14 fourier                 75.49653      0.34375      0.37500      0.28125 # H_ C_3 H_

Dihedral Coeffs

    1       3.36856           -1            2 # X C_R C_R X bond order=1.5
    2       0.23717           -1            2 # X C_R O_3 X bond order=1.0
    3       1.25000           -1            2 # X C_2 C_R X bond order=1.0
    4       9.74339           -1            2 # X C_2 N_2 X bond order=2.0
    5       2.50000           -1            2 # X C_R N_2 X bond order=1.0
    6       1.25000           -1            2 # X C_R C_R X bond order=1.0
    7       0.03255            1            3 # X C_3 O_3 X bond order=1.0

Improper Coeffs

    1       2.00000      1.00000     -1.00000      0.00000            1 # C_R X X X O_2 present=False
    2       2.00000      1.00000     -1.00000      0.00000            1 # C_2 X X X O_2 present=False

Atoms  # full

1 1 6 0.12 9.62553 15.056565932 0.9259766395
2 1 6 -0.081 8.32502 15.5941539221 0.8900123506
3 1 6 -0.015 8.11134 16.9773719621 0.8735328372
4 1 1 0.044 6.7104 17.4583833969 0.8453980471
5 1 3 -0.109 6.43096 18.6648266057 0.6005186077
6 1 6 0.089 5.11952 19.2436255454 0.5608867126
7 1 6 -0.073 3.9982 18.7218358042 1.1436505476
8 1 6 -0.016 2.75384 19.3525125902 1.1188966775
9 1 6 -0.015 2.59273 20.5094853846 0.4981024358
10 1 6 0.04 1.26094 21.1862168342 0.4757409126
11 1 6 -0.077 0.07198 20.4352166912 0.4733782229
12 1 2 -0.181 9.86068 13.6816808265 1.0185762806
13 1 5 0.049 7.46353 14.9379937384 0.8717731771
14 1 5 0.048 4.08073 17.8620549474 1.6651327369
15 1 5 0.03 1.93193 18.9546247212 1.6302954213
16 1 5 0.046 0.12794 19.3577439598 0.4766405141
17 1 5 0.017 5.91694 16.7567393592 0.9805162167
18 1 4 -0.027 8.82321 12.9384636856 1.5468400813
19 1 5 0.043 9.24057 11.9684030153 1.7666097643
20 1 5 0.03 7.99546 12.7016650025 0.8304508221
21 1 5 0.041 8.4294 13.5156175626 2.4727376349
22 1 6 0.119 19.9552 1.019385932 0.9259766395
23 1 6 -0.082 1.2926 32.2523439221 0.8900123506
24 1 6 -0.016 0.19935 31.3719219621 0.8735328372
25 1 1 0.043 0.47954 29.9117333969 0.8453980471
26 1 3 -0.11 -0.45787 29.0105166057 0.6005186077
27 1 6 0.088 -0.30864 27.5763155454 0.5608867126
28 1 6 -0.074 0.78084 26.9993658042 1.1436505476
29 1 6 -0.017 0.85357 25.6007225902 1.1188966775
30 1 6 -0.016 -0.1498 24.7407753846 0.4981024358
31 1 6 0.039 -0.07292 23.2439268342 0.4757409126
32 1 6 -0.077 1.17163 22.5892166912 0.4733782229
33 1 2 -0.181 21.04053 1.9316508265 1.0185762806
34 1 5 0.049 2.28918 31.8301937384 0.8717731771
35 1 5 0.048 1.553 27.6199649474 1.6651327369
36 1 5 0.03 1.67661 25.2047947212 1.6302954213
37 1 5 0.046 2.0772 23.1771639598 0.4766405141
38 1 5 0.017 1.50175 29.6062893592 0.9805162167
39 1 4 -0.027 22.27265 1.5255636856 1.5468400813
40 1 5 0.043 22.93308 2.4222930153 1.7666097643
41 1 5 0.03 22.79704 0.7633150025 0.8304508221
42 1 5 0.041 22.09195 1.1076475626 2.4727376349
43 1 6 0.119 26.94692 16.983735932 0.9259766395
44 1 6 -0.082 -9.61761 17.8330039221 0.8900123506
45 1 6 -0.016 -8.3107 17.3226619621 0.8735328372
46 1 1 0.043 -7.18994 18.2889833969 0.8453980471
47 1 3 -0.11 -5.97309 17.8717666057 0.6005186077
48 1 6 0.088 -4.81088 18.7090455454 0.5608867126
49 1 6 -0.074 -4.77904 20.0742858042 1.1436505476
50 1 6 -0.017 -3.60741 20.8309325902 1.1188966775
51 1 6 -0.016 -2.44294 20.2500253846 0.4981024358
52 1 6 0.039 -1.18802 21.0599168342 0.4757409126
53 1 6 -0.077 -1.24361 22.4645466912 0.4733782229
54 1 2 -0.181 25.62643 17.4887008265 1.0185762806
55 1 5 0.049 -9.75272 18.9029737384 0.8717731771
56 1 5 0.048 -5.63373 20.5519349474 1.6651327369
57 1 5 0.03 -3.60854 21.8586047212 1.6302954213
58 1 5 0.046 -2.20514 22.9555639598 0.4766405141
59 1 5 0.017 -7.41869 19.3578493592 0.9805162167
60 1 4 -0.027 25.43179 18.8795736856 1.5468400813
61 1 5 0.043 24.354 19.0534030153 1.7666097643
62 1 5 0.03 25.73515 19.5510350025 0.8304508221
63 1 5 0.041 26.0063 19.1437475626 2.4727376349
64 1 6 0.119 9.21702 17.861975932 0.9259766395
65 1 6 -0.082 10.51753 17.3134339221 0.8900123506
66 1 6 -0.016 10.73121 15.9251819621 0.8735328372
67 1 1 0.043 12.13215 15.4355933969 0.8453980471
68 1 3 -0.11 12.41159 14.1544966057 0.6005186077
69 1 6 0.088 13.72303 13.5636155454 0.5608867126
70 1 6 -0.074 14.84435 14.2630658042 1.1436505476
71 1 6 -0.017 16.08871 13.6248525902 1.1188966775
72 1 6 -0.016 16.24982 12.2786253846 0.4981024358
73 1 6 0.039 17.58161 11.5950768342 0.4757409126
74 1 6 -0.077 18.77057 12.3453466912 0.4733782229
75 1 2 -0.181 8.98187 19.2650908265 1.0185762806
76 1 5 0.049 11.37902 17.9640237384 0.8717731771
77 1 5 0.048 14.76182 15.2818349474 1.6651327369
78 1 5 0.03 16.91062 14.1786347212 1.6302954213
79 1 5 0.046 18.71461 13.4238239598 0.4766405141
80 1 5 0.017 12.92561 16.1784293592 0.9805162167
81 1 4 -0.027 10.01934 20.1693536856 1.5468400813
82 1 5 0.043 9.60198 21.2064230153 1.7666097643
83 1 5 0.03 10.84709 20.1877650025 0.8304508221
84 1 5 0.041 10.41315 19.8744675626 2.4727376349
85 1 6 0.119 -1.11265 31.899155932 0.9259766395
86 1 6 -0.082 17.54995 0.6552339221 0.8900123506
87 1 6 -0.016 18.6432 1.5306319621 0.8735328372
88 1 1 0.043 18.36301 2.9822533969 0.8453980471
89 1 3 -0.11 19.30042 3.8088066057 0.6005186077
90 1 6 0.088 19.15119 5.2309255454 0.5608867126
91 1 6 -0.074 18.06171 5.9855358042 1.1436505476
92 1 6 -0.017 17.98898 7.3766325902 1.1188966775
93 1 6 -0.016 18.99235 8.0473353846 0.4981024358
94 1 6 0.039 18.91547 9.5373568342 0.4757409126
95 1 6 -0.077 17.67092 10.1913566912 0.4733782229
96 1 2 -0.181 -2.19798 31.0151208265 1.0185762806
97 1 5 0.049 16.55337 1.0718337384 0.8717731771
98 1 5 0.048 17.28955 5.5239149474 1.6651327369
99 1 5 0.03 17.16594 7.9284647212 1.6302954213
100 1 5 0.046 16.76535 9.6043939598 0.4766405141
101 1 5 0.017 17.3408 3.3288793592 0.9805162167
102 1 4 -0.027 -3.4301 31.5822536856 1.5468400813
103 1 5 0.043 -4.09053 30.7525230153 1.7666097643
104 1 5 0.03 -3.95449 32.1261050025 0.8304508221
105 1 5 0.041 -3.2494 32.2824475626 2.4727376349
106 1 6 0.119 -8.10437 15.934805932 0.9259766395
107 1 6 -0.082 28.46016 15.0745839221 0.8900123506
108 1 6 -0.016 27.15325 15.5798919621 0.8735328372
109 1 1 0.043 26.03249 14.6050033969 0.8453980471
110 1 3 -0.11 24.81564 14.9475566057 0.6005186077
111 1 6 0.088 23.65343 14.0981955454 0.5608867126
112 1 6 -0.074 23.62159 12.9106258042 1.1436505476
113 1 6 -0.017 22.44996 12.1464225902 1.1188966775
114 1 6 -0.016 21.28549 12.5380753846 0.4981024358
115 1 6 0.039 20.03057 11.7213768342 0.4757409126
116 1 6 -0.077 20.08616 10.3160266912 0.4733782229
117 1 2 -0.181 -6.78388 15.4580708265 1.0185762806
118 1 5 0.049 28.59527 13.9990537384 0.8717731771
119 1 5 0.048 24.47628 12.5919549474 1.6651327369
120 1 5 0.03 22.45109 11.2746647212 1.6302954213
121 1 5 0.046 21.04769 9.8259939598 0.4766405141
122 1 5 0.017 26.26124 13.5773193592 0.9805162167
123 1 4 -0.027 -6.58924 14.2282536856 1.5468400813
124 1 5 0.043 -5.51145 14.1214130153 1.7666097643
125 1 5 0.03 -6.8926 13.3383950025 0.8304508221
126 1 5 0.041 -7.16375 14.2463475626 2.4727376349
127 1 6 -0.016 41.40782 26.730687452 37.3743697992
128 1 6 -0.069 42.65633 26.1142540176 37.424075254
129 1 5 0.032 41.33094 27.5908440577 36.8510884068
130 1 5 0.06 43.51046 26.5286328594 36.9715954662
131 1 6 -0.017 36.45054 31.040307452 37.3743697992
132 1 6 -0.07 36.36669 32.4411240176 37.424075254
133 1 5 0.032 35.67498 30.4240040577 36.8510884068
134 1 5 0.06 35.52103 32.8701828594 36.9715954662
135 1 6 -0.017 35.19694 24.592357452 37.3743697992
136 1 6 -0.07 34.03228 23.8307040176 37.424075254
137 1 5 0.032 36.04938 24.1092140577 36.8510884068
138 1 5 0.06 34.0238 22.7803528594 36.9715954662
139 1 6 -0.017 52.80493 17.299457452 37.3743697992
140 1 6 -0.07 51.55642 17.9310440176 37.424075254
141 1 5 0.032 52.8818 16.2797740577 36.8510884068
142 1 5 0.06 50.70229 17.3787328594 36.9715954662
143 1 6 -0.017 57.76221 12.989847452 37.3743697992
144 1 6 -0.07 57.84606 11.6041840176 37.424075254
145 1 5 0.032 58.53777 13.4466240577 36.8510884068
146 1 5 0.06 58.69172 11.0371828594 36.9715954662
147 1 6 -0.017 59.01581 19.437787452 37.3743697992
148 1 6 -0.07 60.18047 20.2146040176 37.424075254
149 1 5 0.032 58.16337 19.7614140577 36.8510884068
150 1 5 0.06 60.18895 21.1270028594 36.9715954662
151 1 6 0.12 28.46808 47.692815932 0.9259766395
152 1 6 -0.081 27.16757 48.2304039221 0.8900123506
153 1 6 -0.015 26.95389 49.6136319621 0.8735328372
154 1 1 0.044 25.55295 50.0946433969 0.8453980471
155 1 3 -0.109 25.27351 51.3010866057 0.6005186077
156 1 6 0.089 23.96207 51.8798855454 0.5608867126
157 1 6 -0.073 22.84075 51.3580858042 1.1436505476
158 1 6 -0.016 21.59639 51.9887625902 1.1188966775
159 1 6 -0.015 21.43528 53.1457353846 0.4981024358
160 1 6 0.04 20.10349 53.8224668342 0.4757409126
161 1 6 -0.077 18.91453 53.0714766912 0.4733782229
162 1 2 -0.181 28.70323 46.3179408265 1.0185762806
163 1 5 0.049 26.30608 47.5742437384 0.8717731771
164 1 5 0.048 22.92328 50.4983049474 1.6651327369
165 1 5 0.03 20.77448 51.5908847212 1.6302954213
166 1 5 0.046 18.97049 51.9939939598 0.4766405141
167 1 5 0.017 24.75949 49.3929993592 0.9805162167
168 1 4 -0.027 27.66576 45.5747236856 1.5468400813
169 1 5 0.043 28.08312 44.6046530153 1.7666097643
170 1 5 0.03 26.83801 45.3379150025 0.8304508221
171 1 5 0.041 27.27195 46.1518775626 2.4727376349
172 1 6 0.119 38.79775 33.655645932 0.9259766395
173 1 6 -0.082 20.13515 64.8886039221 0.8900123506
174 1 6 -0.016 19.0419 64.0081719621 0.8735328372
175 1 1 0.043 19.32209 62.5479833969 0.8453980471
176 1 3 -0.11 18.38468 61.6467766057 0.6005186077
177 1 6 0.088 18.53391 60.2125755454 0.5608867126
178 1 6 -0.074 19.62339 59.6356258042 1.1436505476
179 1 6 -0.017 19.69612 58.2369725902 1.1188966775
180 1 6 -0.016 18.69275 57.3770253846 0.4981024358
181 1 6 0.039 18.76963 55.8801868342 0.4757409126
182 1 6 -0.077 20.01418 55.2254666912 0.4733782229
183 1 2 -0.181 39.88308 34.5679108265 1.0185762806
184 1 5 0.049 21.13173 64.4664437384 0.8717731771
185 1 5 0.048 20.39555 60.2562249474 1.6651327369
186 1 5 0.03 20.51916 57.8410447212 1.6302954213
187 1 5 0.046 20.91975 55.8134139598 0.4766405141
188 1 5 0.017 20.3443 62.2425393592 0.9805162167
189 1 4 -0.027 41.1152 34.1618236856 1.5468400813
190 1 5 0.043 41.77563 35.0585530153 1.7666097643
191 1 5 0.03 41.63959 33.3995750025 0.8304508221
192 1 5 0.041 40.9345 33.7438975626 2.4727376349
193 1 6 0.119 45.78947 49.619995932 0.9259766395
194 1 6 -0.082 9.22494 50.4692539221 0.8900123506
195 1 6 -0.016 10.53185 49.9589219621 0.8735328372
196 1 1 0.043 11.65261 50.9252333969 0.8453980471
197 1 3 -0.11 12.86946 50.5080266057 0.6005186077
198 1 6 0.088 14.03167 51.3453055454 0.5608867126
199 1 6 -0.074 14.06351 52.7105358042 1.1436505476
200 1 6 -0.017 15.23514 53.4671825902 1.1188966775
201 1 6 -0.016 16.39961 52.8862753846 0.4981024358
202 1 6 0.039 17.65453 53.6961668342 0.4757409126
203 1 6 -0.077 17.59894 55.1007966912 0.4733782229
204 1 2 -0.181 44.46898 50.1249508265 1.0185762806
205 1 5 0.049 9.08983 51.5392237384 0.8717731771
206 1 5 0.048 13.20882 53.1881849474 1.6651327369
207 1 5 0.03 15.23401 54.4948547212 1.6302954213
208 1 5 0.046 16.63741 55.5918139598 0.4766405141
209 1 5 0.017 11.42386 51.9941093592 0.9805162167
210 1 4 -0.027 44.27434 51.5158236856 1.5468400813
211 1 5 0.043 43.19655 51.6896630153 1.7666097643
212 1 5 0.03 44.5777 52.1872850025 0.8304508221
213 1 5 0.041 44.84885 51.7799975626 2.4727376349
214 1 6 0.119 28.05957 50.498235932 0.9259766395
215 1 6 -0.082 29.36008 49.9496839221 0.8900123506
216 1 6 -0.016 29.57376 48.5614319621 0.8735328372
217 1 1 0.043 30.9747 48.0718433969 0.8453980471
218 1 3 -0.11 31.25414 46.7907566057 0.6005186077
219 1 6 0.088 32.56558 46.1998655454 0.5608867126
220 1 6 -0.074 33.6869 46.8993258042 1.1436505476
221 1 6 -0.017 34.93126 46.2611025902 1.1188966775
222 1 6 -0.016 35.09237 44.9148753846 0.4981024358
223 1 6 0.039 36.42416 44.2313268342 0.4757409126
224 1 6 -0.077 37.61312 44.9815966912 0.4733782229
225 1 2 -0.181 27.82442 51.9013508265 1.0185762806
226 1 5 0.049 30.22157 50.6002837384 0.8717731771
227 1 5 0.048 33.60437 47.9180849474 1.6651327369
228 1 5 0.03 35.75317 46.8148947212 1.6302954213
229 1 5 0.046 37.55716 46.0600739598 0.4766405141
230 1 5 0.017 31.76816 48.8146793592 0.9805162167
231 1 4 -0.027 28.86189 52.8056136856 1.5468400813
232 1 5 0.043 28.44453 53.8426730153 1.7666097643
233 1 5 0.03 29.68964 52.8240150025 0.8304508221
234 1 5 0.041 29.2557 52.5107175626 2.4727376349
235 1 6 0.119 17.7299 64.535415932 0.9259766395
236 1 6 -0.082 36.3925 33.2914839221 0.8900123506
237 1 6 -0.016 37.48575 34.1668919621 0.8735328372
238 1 1 0.043 37.20556 35.6185033969 0.8453980471
239 1 3 -0.11 38.14297 36.4450566057 0.6005186077
240 1 6 0.088 37.99374 37.8671855454 0.5608867126
241 1 6 -0.074 36.90426 38.6217958042 1.1436505476
242 1 6 -0.017 36.83153 40.0128925902 1.1188966775
243 1 6 -0.016 37.8349 40.6835853846 0.4981024358
244 1 6 0.039 37.75802 42.1736068342 0.4757409126
245 1 6 -0.077 36.51347 42.8276066912 0.4733782229
246 1 2 -0.181 16.64457 63.6513808265 1.0185762806
247 1 5 0.049 35.39592 33.7080837384 0.8717731771
248 1 5 0.048 36.1321 38.1601749474 1.6651327369
249 1 5 0.03 36.00849 40.5647247212 1.6302954213
250 1 5 0.046 35.6079 42.2406539598 0.4766405141
251 1 5 0.017 36.18335 35.9651393592 0.9805162167
252 1 4 -0.027 15.41245 64.2185036856 1.5468400813
253 1 5 0.043 14.75202 63.3887730153 1.7666097643
254 1 5 0.03 14.88806 64.7623550025 0.8304508221
255 1 5 0.041 15.59315 64.9186975626 2.4727376349
256 1 6 0.119 10.73818 48.571065932 0.9259766395
257 1 6 -0.082 47.30271 47.7108339221 0.8900123506
258 1 6 -0.016 45.9958 48.2161419621 0.8735328372
259 1 1 0.043 44.87504 47.2412533969 0.8453980471
260 1 3 -0.11 43.65819 47.5838166057 0.6005186077
261 1 6 0.088 42.49598 46.7344555454 0.5608867126
262 1 6 -0.074 42.46414 45.5468758042 1.1436505476
263 1 6 -0.017 41.29251 44.7826825902 1.1188966775
264 1 6 -0.016 40.12804 45.1743353846 0.4981024358
265 1 6 0.039 38.87312 44.3576268342 0.4757409126
266 1 6 -0.077 38.92871 42.9522766912 0.4733782229
267 1 2 -0.181 12.05867 48.0943308265 1.0185762806
268 1 5 0.049 47.43782 46.6353037384 0.8717731771
269 1 5 0.048 43.31883 45.2282049474 1.6651327369
270 1 5 0.03 41.29364 43.9109147212 1.6302954213
271 1 5 0.046 39.89024 42.4622539598 0.4766405141
272 1 5 0.017 45.10379 46.2135693592 0.9805162167
273 1 4 -0.027 12.25331 46.8645036856 1.5468400813
274 1 5 0.043 13.3311 46.7576730153 1.7666097643
275 1 5 0.03 11.94995 45.9746450025 0.8304508221
276 1 5 0.041 11.6788 46.8825975626 2.4727376349
277 1 6 -0.016 -15.11983 59.366937452 37.3743697992
278 1 6 -0.069 -13.87132 58.7505140176 37.424075254
279 1 5 0.032 -15.1967 60.2271040577 36.8510884068
280 1 5 0.06 -13.01719 59.1648828594 36.9715954662
281 1 6 -0.017 -20.07711 63.676557452 37.3743697992
282 1 6 -0.07 -20.16096 65.0773740176 37.424075254
283 1 5 0.032 -20.85267 63.0602540577 36.8510884068
284 1 5 0.06 -21.00662 65.5064328594 36.9715954662
285 1 6 -0.017 -21.33071 57.228617452 37.3743697992
286 1 6 -0.07 -22.49537 56.4669540176 37.424075254
287 1 5 0.032 -20.47827 56.7454640577 36.8510884068
288 1 5 0.06 -22.50385 55.4166128594 36.9715954662
289 1 6 -0.017 -3.72272 49.935717452 37.3743697992
290 1 6 -0.07 -4.97123 50.5672940176 37.424075254
291 1 5 0.032 -3.64585 48.9160240577 36.8510884068
292 1 5 0.06 -5.82536 50.0149828594 36.9715954662
293 1 6 -0.017 1.23456 45.626097452 37.3743697992
294 1 6 -0.07 1.31841 44.2404340176 37.424075254
295 1 5 0.032 2.01012 46.0828740577 36.8510884068
296 1 5 0.06 2.16407 43.6734328594 36.9715954662
297 1 6 -0.017 2.48816 52.074047452 37.3743697992
298 1 6 -0.07 3.65282 52.8508540176 37.424075254
299 1 5 0.032 1.63572 52.3976640577 36.8510884068
300 1 5 0.06 3.6613 53.7632528594 36.9715954662
301 1 6 0.12 47.31063 15.056565932 0.9259766395
302 1 6 -0.081 46.01012 15.5941539221 0.8900123506
303 1 6 -0.015 45.79644 16.9773719621 0.8735328372
304 1 1 0.044 44.3955 17.4583833969 0.8453980471
305 1 3 -0.109 44.11606 18.6648266057 0.6005186077
306 1 6 0.089 42.80462 19.2436255454 0.5608867126
307 1 6 -0.073 41.6833 18.7218358042 1.1436505476
308 1 6 -0.016 40.43894 19.3525125902 1.1188966775
309 1 6 -0.015 40.27783 20.5094853846 0.4981024358
310 1 6 0.04 38.94604 21.1862168342 0.4757409126
311 1 6 -0.077 37.75708 20.4352166912 0.4733782229
312 1 2 -0.181 47.54578 13.6816808265 1.0185762806
313 1 5 0.049 45.14863 14.9379937384 0.8717731771
314 1 5 0.048 41.76583 17.8620549474 1.6651327369
315 1 5 0.03 39.61703 18.9546247212 1.6302954213
316 1 5 0.046 37.81304 19.3577439598 0.4766405141
317 1 5 0.017 43.60204 16.7567393592 0.9805162167
318 1 4 -0.027 46.50831 12.9384636856 1.5468400813
319 1 5 0.043 46.92567 11.9684030153 1.7666097643
320 1 5 0.03 45.68056 12.7016650025 0.8304508221
321 1 5 0.041 46.1145 13.5156175626 2.4727376349
322 1 6 0.119 57.6403 1.019385932 0.9259766395
323 1 6 -0.082 38.9777 32.2523439221 0.8900123506
324 1 6 -0.016 37.88445 31.3719219621 0.8735328372
325 1 1 0.043 38.16464 29.9117333969 0.8453980471
326 1 3 -0.11 37.22723 29.0105166057 0.6005186077
327 1 6 0.088 37.37646 27.5763155454 0.5608867126
328 1 6 -0.074 38.46594 26.9993658042 1.1436505476
329 1 6 -0.017 38.53867 25.6007225902 1.1188966775
330 1 6 -0.016 37.5353 24.7407753846 0.4981024358
331 1 6 0.039 37.61218 23.2439268342 0.4757409126
332 1 6 -0.077 38.85673 22.5892166912 0.4733782229
333 1 2 -0.181 58.72563 1.9316508265 1.0185762806
334 1 5 0.049 39.97428 31.8301937384 0.8717731771
335 1 5 0.048 39.2381 27.6199649474 1.6651327369
336 1 5 0.03 39.36171 25.2047947212 1.6302954213
337 1 5 0.046 39.7623 23.1771639598 0.4766405141
338 1 5 0.017 39.18685 29.6062893592 0.9805162167
339 1 4 -0.027 59.95775 1.5255636856 1.5468400813
340 1 5 0.043 60.61818 2.4222930153 1.7666097643
341 1 5 0.03 60.48214 0.7633150025 0.8304508221
342 1 5 0.041 59.77705 1.1076475626 2.4727376349
343 1 6 0.119 64.63202 16.983735932 0.9259766395
344 1 6 -0.082 28.06749 17.8330039221 0.8900123506
345 1 6 -0.016 29.3744 17.3226619621 0.8735328372
346 1 1 0.043 30.49516 18.2889833969 0.8453980471
347 1 3 -0.11 31.71201 17.8717666057 0.6005186077
348 1 6 0.088 32.87422 18.7090455454 0.5608867126
349 1 6 -0.074 32.90606 20.0742858042 1.1436505476
350 1 6 -0.017 34.07769 20.8309325902 1.1188966775
351 1 6 -0.016 35.24216 20.2500253846 0.4981024358
352 1 6 0.039 36.49708 21.0599168342 0.4757409126
353 1 6 -0.077 36.44149 22.4645466912 0.4733782229
354 1 2 -0.181 63.31153 17.4887008265 1.0185762806
355 1 5 0.049 27.93238 18.9029737384 0.8717731771
356 1 5 0.048 32.05137 20.5519349474 1.6651327369
357 1 5 0.03 34.07656 21.8586047212 1.6302954213
358 1 5 0.046 35.47996 22.9555639598 0.4766405141
359 1 5 0.017 30.26641 19.3578493592 0.9805162167
360 1 4 -0.027 63.11689 18.8795736856 1.5468400813
361 1 5 0.043 62.0391 19.0534030153 1.7666097643
362 1 5 0.03 63.42025 19.5510350025 0.8304508221
363 1 5 0.041 63.6914 19.1437475626 2.4727376349
364 1 6 0.119 46.90212 17.861975932 0.9259766395
365 1 6 -0.082 48.20263 17.3134339221 0.8900123506
366 1 6 -0.016 48.41631 15.9251819621 0.8735328372
367 1 1 0.043 49.81725 15.4355933969 0.8453980471
368 1 3 -0.11 50.09669 14.1544966057 0.6005186077
369 1 6 0.088 51.40813 13.5636155454 0.5608867126
370 1 6 -0.074 52.52945 14.2630658042 1.1436505476
371 1 6 -0.017 53.77381 13.6248525902 1.1188966775
372 1 6 -0.016 53.93492 12.2786253846 0.4981024358
373 1 6 0.039 55.26671 11.5950768342 0.4757409126
374 1 6 -0.077 56.45567 12.3453466912 0.4733782229
375 1 2 -0.181 46.66697 19.2650908265 1.0185762806
376 1 5 0.049 49.06412 17.9640237384 0.8717731771
377 1 5 0.048 52.44692 15.2818349474 1.6651327369
378 1 5 0.03 54.59572 14.1786347212 1.6302954213
379 1 5 0.046 56.39971 13.4238239598 0.4766405141
380 1 5 0.017 50.61071 16.1784293592 0.9805162167
381 1 4 -0.027 47.70444 20.1693536856 1.5468400813
382 1 5 0.043 47.28708 21.2064230153 1.7666097643
383 1 5 0.03 48.53219 20.1877650025 0.8304508221
384 1 5 0.041 48.09825 19.8744675626 2.4727376349
385 1 6 0.119 36.57245 31.899155932 0.9259766395
386 1 6 -0.082 55.23505 0.6552339221 0.8900123506
387 1 6 -0.016 56.3283 1.5306319621 0.8735328372
388 1 1 0.043 56.04811 2.9822533969 0.8453980471
389 1 3 -0.11 56.98552 3.8088066057 0.6005186077
390 1 6 0.088 56.83629 5.2309255454 0.5608867126
391 1 6 -0.074 55.74681 5.9855358042 1.1436505476
392 1 6 -0.017 55.67408 7.3766325902 1.1188966775
393 1 6 -0.016 56.67745 8.0473353846 0.4981024358
394 1 6 0.039 56.60057 9.5373568342 0.4757409126
395 1 6 -0.077 55.35602 10.1913566912 0.4733782229
396 1 2 -0.181 35.48712 31.0151208265 1.0185762806
397 1 5 0.049 54.23847 1.0718337384 0.8717731771
398 1 5 0.048 54.97465 5.5239149474 1.6651327369
399 1 5 0.03 54.85104 7.9284647212 1.6302954213
400 1 5 0.046 54.45045 9.6043939598 0.4766405141
401 1 5 0.017 55.0259 3.3288793592 0.9805162167
402 1 4 -0.027 34.255 31.5822536856 1.5468400813
403 1 5 0.043 33.59457 30.7525230153 1.7666097643
404 1 5 0.03 33.73061 32.1261050025 0.8304508221
405 1 5 0.041 34.4357 32.2824475626 2.4727376349
406 1 6 0.119 29.58073 15.934805932 0.9259766395
407 1 6 -0.082 66.14526 15.0745839221 0.8900123506
408 1 6 -0.016 64.83835 15.5798919621 0.8735328372
409 1 1 0.043 63.71759 14.6050033969 0.8453980471
410 1 3 -0.11 62.50074 14.9475566057 0.6005186077
411 1 6 0.088 61.33853 14.0981955454 0.5608867126
412 1 6 -0.074 61.30669 12.9106258042 1.1436505476
413 1 6 -0.017 60.13506 12.1464225902 1.1188966775
414 1 6 -0.016 58.97059 12.5380753846 0.4981024358
415 1 6 0.039 57.71567 11.7213768342 0.4757409126
416 1 6 -0.077 57.77126 10.3160266912 0.4733782229
417 1 2 -0.181 30.90122 15.4580708265 1.0185762806
418 1 5 0.049 66.28037 13.9990537384 0.8717731771
419 1 5 0.048 62.16138 12.5919549474 1.6651327369
420 1 5 0.03 60.13619 11.2746647212 1.6302954213
421 1 5 0.046 58.73279 9.8259939598 0.4766405141
422 1 5 0.017 63.94634 13.5773193592 0.9805162167
423 1 4 -0.027 31.09586 14.2282536856 1.5468400813
424 1 5 0.043 32.17365 14.1214130153 1.7666097643
425 1 5 0.03 30.7925 13.3383950025 0.8304508221
426 1 5 0.041 30.52135 14.2463475626 2.4727376349
427 1 6 -0.016 3.72272 26.730687452 37.3743697992
428 1 6 -0.069 4.97123 26.1142540176 37.424075254
429 1 5 0.032 3.64585 27.5908440577 36.8510884068
430 1 5 0.06 5.82536 26.5286328594 36.9715954662
431 1 6 -0.017 -1.23456 31.040307452 37.3743697992
432 1 6 -0.07 -1.31841 32.4411240176 37.424075254
433 1 5 0.032 -2.01012 30.4240040577 36.8510884068
434 1 5 0.06 -2.16407 32.8701828594 36.9715954662
435 1 6 -0.017 -2.48816 24.592357452 37.3743697992
436 1 6 -0.07 -3.65282 23.8307040176 37.424075254
437 1 5 0.032 -1.63572 24.1092140577 36.8510884068
438 1 5 0.06 -3.6613 22.7803528594 36.9715954662
439 1 6 -0.017 15.11983 17.299457452 37.3743697992
440 1 6 -0.07 13.87132 17.9310440176 37.424075254
441 1 5 0.032 15.1967 16.2797740577 36.8510884068
442 1 5 0.06 13.01719 17.3787328594 36.9715954662
443 1 6 -0.017 20.07711 12.989847452 37.3743697992
444 1 6 -0.07 20.16096 11.6041840176 37.424075254
445 1 5 0.032 20.85267 13.4466240577 36.8510884068
446 1 5 0.06 21.00662 11.0371828594 36.9715954662
447 1 6 -0.017 21.33071 19.437787452 37.3743697992
448 1 6 -0.07 22.49537 20.2146040176 37.424075254
449 1 5 0.032 20.47827 19.7614140577 36.8510884068
450 1 5 0.06 22.50385 21.1270028594 36.9715954662
451 1 6 0.12 -9.21702 47.692815932 0.9259766395
452 1 6 -0.081 -10.51753 48.2304039221 0.8900123506
453 1 6 -0.015 -10.73121 49.6136319621 0.8735328372
454 1 1 0.044 -12.13215 50.0946433969 0.8453980471
455 1 3 -0.109 -12.41159 51.3010866057 0.6005186077
456 1 6 0.089 -13.72303 51.8798855454 0.5608867126
457 1 6 -0.073 -14.84435 51.3580858042 1.1436505476
458 1 6 -0.016 -16.08871 51.9887625902 1.1188966775
459 1 6 -0.015 -16.24982 53.1457353846 0.4981024358
460 1 6 0.04 -17.58161 53.8224668342 0.4757409126
461 1 6 -0.077 -18.77057 53.0714766912 0.4733782229
462 1 2 -0.181 -8.98187 46.3179408265 1.0185762806
463 1 5 0.049 -11.37902 47.5742437384 0.8717731771
464 1 5 0.048 -14.76182 50.4983049474 1.6651327369
465 1 5 0.03 -16.91062 51.5908847212 1.6302954213
466 1 5 0.046 -18.71461 51.9939939598 0.4766405141
467 1 5 0.017 -12.92561 49.3929993592 0.9805162167
468 1 4 -0.027 -10.01934 45.5747236856 1.5468400813
469 1 5 0.043 -9.60198 44.6046530153 1.7666097643
470 1 5 0.03 -10.84709 45.3379150025 0.8304508221
471 1 5 0.041 -10.41315 46.1518775626 2.4727376349
472 1 6 0.119 1.11265 33.655645932 0.9259766395
473 1 6 -0.082 -17.54995 64.8886039221 0.8900123506
474 1 6 -0.016 -18.6432 64.0081719621 0.8735328372
475 1 1 0.043 -18.36301 62.5479833969 0.8453980471
476 1 3 -0.11 -19.30042 61.6467766057 0.6005186077
477 1 6 0.088 -19.15119 60.2125755454 0.5608867126
478 1 6 -0.074 -18.06171 59.6356258042 1.1436505476
479 1 6 -0.017 -17.98898 58.2369725902 1.1188966775
480 1 6 -0.016 -18.99235 57.3770253846 0.4981024358
481 1 6 0.039 -18.91547 55.8801868342 0.4757409126
482 1 6 -0.077 -17.67092 55.2254666912 0.4733782229
483 1 2 -0.181 2.19798 34.5679108265 1.0185762806
484 1 5 0.049 -16.55337 64.4664437384 0.8717731771
485 1 5 0.048 -17.28955 60.2562249474 1.6651327369
486 1 5 0.03 -17.16594 57.8410447212 1.6302954213
487 1 5 0.046 -16.76535 55.8134139598 0.4766405141
488 1 5 0.017 -17.3408 62.2425393592 0.9805162167
489 1 4 -0.027 3.4301 34.1618236856 1.5468400813
490 1 5 0.043 4.09053 35.0585530153 1.7666097643
491 1 5 0.03 3.95449 33.3995750025 0.8304508221
492 1 5 0.041 3.2494 33.7438975626 2.4727376349
493 1 6 0.119 8.10437 49.619995932 0.9259766395
494 1 6 -0.082 -28.46016 50.4692539221 0.8900123506
495 1 6 -0.016 -27.15325 49.9589219621 0.8735328372
496 1 1 0.043 -26.03249 50.9252333969 0.8453980471
497 1 3 -0.11 -24.81564 50.5080266057 0.6005186077
498 1 6 0.088 -23.65343 51.3453055454 0.5608867126
499 1 6 -0.074 -23.62159 52.7105358042 1.1436505476
500 1 6 -0.017 -22.44996 53.4671825902 1.1188966775
501 1 6 -0.016 -21.28549 52.8862753846 0.4981024358
502 1 6 0.039 -20.03057 53.6961668342 0.4757409126
503 1 6 -0.077 -20.08616 55.1007966912 0.4733782229
504 1 2 -0.181 6.78388 50.1249508265 1.0185762806
505 1 5 0.049 -28.59527 51.5392237384 0.8717731771
506 1 5 0.048 -24.47628 53.1881849474 1.6651327369
507 1 5 0.03 -22.45109 54.4948547212 1.6302954213
508 1 5 0.046 -21.04769 55.5918139598 0.4766405141
509 1 5 0.017 -26.26124 51.9941093592 0.9805162167
510 1 4 -0.027 6.58924 51.5158236856 1.5468400813
511 1 5 0.043 5.51145 51.6896630153 1.7666097643
512 1 5 0.03 6.8926 52.1872850025 0.8304508221
513 1 5 0.041 7.16375 51.7799975626 2.4727376349
514 1 6 0.119 -9.62553 50.498235932 0.9259766395
515 1 6 -0.082 -8.32502 49.9496839221 0.8900123506
516 1 6 -0.016 -8.11134 48.5614319621 0.8735328372
517 1 1 0.043 -6.7104 48.0718433969 0.8453980471
518 1 3 -0.11 -6.43096 46.7907566057 0.6005186077
519 1 6 0.088 -5.11952 46.1998655454 0.5608867126
520 1 6 -0.074 -3.9982 46.8993258042 1.1436505476
521 1 6 -0.017 -2.75384 46.2611025902 1.1188966775
522 1 6 -0.016 -2.59273 44.9148753846 0.4981024358