
    6000 atoms
    6480 bonds
    10560 angles
    14640 dihedrals
    2880 impropers

    6 atom types
    10 bond types
    14 angle types
    7 dihedral types
    2 improper types

0.00000000 75.3702 xlo xhi
0.00000000 65.27250789 ylo yhi
0.00000000 37.893 zlo zhi
-37.6851 0.0 0.0 xy xz yz 

Masses 

    1    12.0107
    2    15.9994
    3    12.0107
    4    12.0107
    5    14.0067
    6    1.00794

Pair Coeffs

    1       0.10500      3.43085 # C_3 C_3
    2       0.06000      3.11815 # O_3 O_3
    3       0.10500      3.43085 # C_R C_R
    4       0.10500      3.43085 # C_2 C_2
    5       0.06900      3.26069 # N_2 N_2
    6       0.04400      2.57113 # H_ H_

Bond Coeffs

    1     462.65505      1.37926 # C_R C_R bond order=1.5
    2     572.46041      1.36631 # C_R O_3 bond order=1.0
    3     357.44038      1.08142 # C_R H_ bond order=1.0
    4     389.26171      1.46100 # C_2 C_R bond order=1.0
    5     769.38234      1.28041 # C_2 N_2 bond order=2.0
    6     354.48390      1.08442 # C_2 H_ bond order=1.0
    7     578.29491      1.40825 # C_R N_2 bond order=1.0
    8     391.66951      1.45800 # C_R C_R bond order=1.0
    9     539.20166      1.39385 # C_3 O_3 bond order=1.0
    10    331.06939      1.10940 # C_3 H_ bond order=1.0

Angle Coeffs

    1  cosine/periodic        111.29751           -1            3 # C_R C_R C_R
    2  cosine/periodic        135.76992           -1            3 # C_R C_R O_3
    3  cosine/periodic         57.28902           -1            3 # C_R C_R H_
    4  cosine/periodic        101.85214           -1            3 # C_2 C_R C_R
    5  cosine/periodic        150.01499           -1            3 # C_R C_2 N_2
    6  cosine/periodic         51.27132           -1            3 # C_R C_2 H_
    7  cosine/periodic         86.74085           -1            3 # H_ C_2 N_2
    8  fourier                291.47740      0.36401      0.41847      0.28800 # C_2 N_2 C_R
    9  cosine/periodic        143.48201           -1            3 # C_R C_R N_2
    10 cosine/periodic        102.18328           -1            3 # C_R C_R C_R
    11 cosine/periodic        102.18328           -1            3 # C_R C_R C_R
    12 fourier                320.94891      0.30023      0.26733      0.26675 # C_3 O_3 C_R
    13 fourier                165.75867      0.34375      0.37500      0.28125 # H_ C_3 O_3
    14 fourier                 75.49653      0.34375      0.37500      0.28125 # H_ C_3 H_

Dihedral Coeffs

    1       3.36856           -1            2 # X C_R C_R X bond order=1.5
    2       0.23717           -1            2 # X C_R O_3 X bond order=1.0
    3       1.25000           -1            2 # X C_2 C_R X bond order=1.0
    4       9.74339           -1            2 # X C_2 N_2 X bond order=2.0
    5       2.50000           -1            2 # X C_R N_2 X bond order=1.0
    6       1.25000           -1            2 # X C_R C_R X bond order=1.0
    7       0.03255            1            3 # X C_3 O_3 X bond order=1.0

Improper Coeffs

    1       2.00000      1.00000     -1.00000      0.00000            1 # C_R X X X O_2 present=False
    2       2.00000      1.00000     -1.00000      0.00000            1 # C_2 X X X O_2 present=False

Atoms

    1 1     3      0.11300      9.62553     14.91542      0.93664
    2 1     3     -0.07400      8.32502     15.45849      0.90034
    3 1     3     -0.02100      8.11134     16.84422      0.88366
    4 1     4      0.04200      6.71040     17.32952      0.85517
    5 1     5     -0.11200      6.43096     18.57329      0.60742
    6 1     3      0.08000      5.11952     19.15813      0.56733
    7 1     3     -0.06500      3.99820     18.54751      1.15687
    8 1     3     -0.01800      2.75384     19.18196      1.13186
    9 1     3     -0.01300      2.59273     20.43356      0.50383
   10 1     3      0.02900      1.26094     21.11370      0.48124
   11 1     3     -0.06500      0.07198     20.36306      0.47889
   12 1     2     -0.18600      9.86087     13.52610      1.03039
   13 1     1     -0.01900      8.82321     12.70268      1.56468
   14 1     3      0.11700     19.95520      0.87824      0.93664
   15 1     3     -0.06900      1.29260     32.11668      0.90034
   16 1     3     -0.01900      0.19954     31.23844      0.88366
   17 1     4      0.04000      0.47954     29.78287      0.85517
   18 1     5     -0.11400     -0.45787     28.91898      0.60742
   19 1     3      0.07700     -0.30864     27.49082      0.56733
   20 1     3     -0.06600      0.78084     26.82504      1.15687
   21 1     3     -0.01900      0.85357     25.43017      1.13186
   22 1     3     -0.01300     -0.14961     24.66452      0.50383
   23 1     3      0.02900     -0.07292     23.17141      0.48124
   24 1     3     -0.06500      1.17163     22.51706      0.47889
   25 1     2     -0.18500     21.04091      1.77639      1.03039
   26 1     1     -0.02100     22.27265      1.28978      1.56468
   27 1     3      0.11400     26.94692     16.84259      0.93664
   28 1     3     -0.06900     -9.61761     17.69734      0.90034
   29 1     3     -0.01600     -8.31032     17.18951      0.88366
   30 1     4      0.04900     -7.18994     18.16012      0.85517
   31 1     5     -0.11600     -5.97309     17.78023      0.60742
   32 1     3      0.07700     -4.81088     18.62355      0.56733
   33 1     3     -0.06200     -4.77904     19.89996      1.15687
   34 1     3     -0.01900     -3.60741     20.66038      1.13186
   35 1     3     -0.01300     -2.44256     20.17410      0.50383
   36 1     3      0.02900     -1.18802     20.98740      0.48124
   37 1     3     -0.06500     -1.24361     22.39239      0.47889
   38 1     2     -0.18900     25.62643     17.33344      1.03039
   39 1     1     -0.01900     25.43179     18.64379      1.56468
   40 1     3      0.11500      9.21702     17.72083      0.93664
   41 1     3     -0.07300     10.51753     17.17777      0.90034
   42 1     3     -0.02000     10.73121     15.79203      0.88366
   43 1     4      0.04200     12.13215     15.30673      0.85517
   44 1     5     -0.11200     12.41159     14.06296      0.60742
   45 1     3      0.08000     13.72303     13.47812      0.56733
   46 1     3     -0.06500     14.84435     14.08874      1.15687
   47 1     3     -0.01800     16.08871     13.45430      1.13186
   48 1     3     -0.01300     16.24982     12.20270      0.50383
   49 1     3      0.02900     17.58161     11.52256      0.48124
   50 1     3     -0.06500     18.77057     12.27319      0.47889
   51 1     2     -0.18600      8.98168     19.11016      1.03039
   52 1     1     -0.01800     10.01934     19.93357      1.56468
   53 1     3      0.11700     -1.11265     31.75801      0.93664
   54 1     3     -0.07000     17.54995      0.51957      0.90034
   55 1     3     -0.02100     18.64301      1.39781      0.88366
   56 1     4      0.03900     18.36301      2.85339      0.85517
   57 1     5     -0.11400     19.30042      3.71727      0.60742
   58 1     3      0.07800     19.15119      5.14543      0.56733
   59 1     3     -0.06500     18.06171      5.81121      1.15687
   60 1     3     -0.01900     17.98898      7.20608      1.13186
   61 1     3     -0.01300     18.99216      7.97173      0.50383
   62 1     3      0.02900     18.91547      9.46484      0.48124
   63 1     3     -0.06500     17.67092     10.11920      0.47889
   64 1     2     -0.18200     -2.19836     30.85986      1.03039
   65 1     1     -0.02300     -3.43010     31.34647      1.56468
   66 1     3      0.11500     -8.10437     15.79366      0.93664
   67 1     3     -0.07000     28.46016     14.93892      0.90034
   68 1     3     -0.01800     27.15287     15.44674      0.88366
   69 1     4      0.04700     26.03249     14.47614      0.85517
   70 1     5     -0.11600     24.81564     14.85602      0.60742
   71 1     3      0.07600     23.65343     14.01270      0.56733
   72 1     3     -0.06400     23.62159     12.73630      1.15687
   73 1     3     -0.01800     22.44996     11.97587      1.13186
   74 1     3     -0.01300     21.28511     12.46215      0.50383
   75 1     3      0.02900     20.03057     11.64886      0.48124
   76 1     3     -0.06500     20.08616     10.24387      0.47889
   77 1     2     -0.18900     -6.78388     15.30281      1.03039
   78 1     1     -0.01900     -6.58924     13.99247      1.56468
   79 1     6      0.04700      7.41869     14.76725      0.88382
   80 1     6      0.02000      5.85250     16.60533      1.05320
   81 1     6      0.04400      4.10165     17.52893      1.65880
   82 1     6      0.03100      1.85203     18.68785      1.62356
   83 1     6      0.04200      0.11701     19.22373      0.47488
   84 1     6      0.04100      9.26450     11.70793      1.90412
   85 1     6      0.03500      8.03597     12.51470      0.76210
   86 1     6      0.03600      8.34141     13.22780      2.45441
   87 1     6      0.05100      2.34439     31.67740      0.88382
   88 1     6      0.02000      1.53567     29.40200      1.05320
   89 1     6      0.04200      1.61123     27.42392      1.65880
   90 1     6      0.03100      1.73238     24.89624      1.62356
   91 1     6      0.04200      2.13580     23.12572      0.47488
   92 1     6      0.04300     23.06102      1.26629      0.74149
   93 1     6      0.04500     22.11946      0.23727      1.97445
   94 1     6      0.05100     22.62048      1.97776      2.40454
   95 1     6      0.05100     -9.76308     18.82785      0.88382
   96 1     6      0.02500     -7.38816     19.26518      1.05320
   97 1     6      0.04500     -5.71287     20.31966      1.65880
   98 1     6      0.03100     -3.58442     21.68842      1.62356
   99 1     3     -0.01800     41.40782     21.03374     37.80630
  100 1     3     -0.06100     42.65633     20.40973     37.85670
  101 1     6      0.04200     -2.25282     22.92305      0.47488
  102 1     6      0.03500     25.57857     19.41629      0.73944
  103 1     6      0.03600     26.18643     18.83014      2.39840
  104 1     6      0.03800     24.37472     18.73060      1.98279
  105 1     6      0.04600     11.42386     17.86900      0.88382
  106 1     6      0.02000     12.99005     16.03093      1.05320
  107 1     6      0.04400     14.74090     15.10732      1.65880
  108 1     6      0.03100     16.99052     13.94841      1.62356
  109 1     6      0.04200     18.72554     13.41252      0.47488
  110 1     6      0.03800     10.42389     20.61469      0.74498
  111 1     6      0.03300     10.86085     19.27497      1.96149
  112 1     6      0.04100      9.60066     20.56867      2.41409
  113 1     6      0.04800     16.49816      0.95885      0.88382
  114 1     6      0.01800     17.30688      3.23425      1.05320
  115 1     6      0.04200     17.23132      5.21234      1.65880
  116 1     6      0.03100     17.11017      7.74001      1.62356
  117 1     3     -0.01900     36.45054     25.34336     37.80630
  118 1     3     -0.06100     36.36669     26.73660     37.85670
  119 1     6      0.04200     16.70675      9.51053      0.47488
  120 1     6      0.05300     -3.88515     30.55700      2.24978
  121 1     6      0.04300     -4.15214     31.57101      0.71148
  122 1     6      0.04800     -3.23640     32.29945      2.15937
  123 1     6      0.05100     28.60563     13.80840      0.88382
  124 1     6      0.02700     26.23071     13.37107      1.05320
  125 1     6      0.04700     24.55542     12.31660      1.65880
  126 1     6      0.03200     22.42697     10.94783      1.62356
  127 1     3     -0.06400     34.03228     18.12618     37.85670
  128 1     3     -0.01800     35.19694     18.89541     37.80630
  129 1     6      0.04300     21.09537      9.71320      0.47488
  130 1     6      0.03800     -5.62299     13.96832      2.16900
  131 1     6      0.03500     -6.52254     13.23988      0.71095
  132 1     6      0.03600     -7.46693     13.72354      2.24061
  133 1     3     -0.01800     52.80493     11.60251     37.80630
  134 1     3     -0.06100     51.55642     12.22652     37.85670
  135 1     3     -0.01900     57.76221      7.29290     37.80630
  136 1     3     -0.06100     57.84606      5.89966     37.85670
  137 1     3     -0.01900     59.01581     13.74084     37.80630
  138 1     3     -0.06500     60.18047     14.51008     37.85670
  139 1     6      0.03200     41.30909     22.04024     37.27989
  140 1     6      0.05300     43.56793     20.92147     37.40244
  141 1     6      0.03200     35.62825     24.75460     37.27989
  142 1     6      0.05000     35.46771     27.27020     37.40244
  143 1     6      0.03200     36.11797     18.47767     37.27989
  144 1     6      0.04700     34.01966     17.08084     37.40244
  145 1     6      0.03200     52.90366     10.59601     37.27989
  146 1     6      0.05300     50.64482     11.71478     37.40244
  147 1     6      0.03200     58.58450      7.88166     37.27989
  148 1     6      0.05000     58.74504      5.36605     37.40244
  149 1     6      0.03200     58.09478     14.15859     37.27989
  150 1     6      0.04900     60.19309     15.55542     37.40244
  151 1     3      0.11300     28.46808     47.55167      0.93664
  152 1     3     -0.07400     27.16757     48.09474      0.90034
  153 1     3     -0.02100     26.95389     49.48048      0.88366
  154 1     4      0.04200     25.55295     49.96578      0.85517
  155 1     5     -0.11200     25.27351     51.20955      0.60742
  156 1     3      0.08000     23.96207     51.79439      0.56733
  157 1     3     -0.06500     22.84075     51.18376      1.15687
  158 1     3     -0.01800     21.59639     51.81821      1.13186
  159 1     3     -0.01300     21.43528     53.06981      0.50383
  160 1     3      0.02900     20.10349     53.74995      0.48124
  161 1     3     -0.06500     18.91453     52.99932      0.47889
  162 1     2     -0.18600     28.70342     46.16235      1.03039
  163 1     1     -0.01900     27.66576     45.33894      1.56468
  164 1     3      0.11700     38.79775     33.51450      0.93664
  165 1     3     -0.06900     20.13515     64.75294      0.90034
  166 1     3     -0.01900     19.04209     63.87470      0.88366
  167 1     4      0.04000     19.32209     62.41912      0.85517
  168 1     5     -0.11400     18.38468     61.55524      0.60742
  169 1     3      0.07700     18.53391     60.12708      0.56733
  170 1     3     -0.06600     19.62339     59.46130      1.15687
  171 1     3     -0.01900     19.69612     58.06642      1.13186
  172 1     3     -0.01300     18.69294     57.30078      0.50383
  173 1     3      0.02900     18.76963     55.80767      0.48124
  174 1     3     -0.06500     20.01418     55.15331      0.47889
  175 1     2     -0.18500     39.88346     34.41265      1.03039
  176 1     1     -0.02100     41.11520     33.92604      1.56468
  177 1     3      0.11400     45.78947     49.47885      0.93664
  178 1     3     -0.06900      9.22494     50.33359      0.90034
  179 1     3     -0.01600     10.53223     49.82577      0.88366
  180 1     4      0.04900     11.65261     50.79637      0.85517
  181 1     5     -0.11600     12.86946     50.41649      0.60742
  182 1     3      0.07700     14.03167     51.25981      0.56733
  183 1     3     -0.06200     14.06351     52.53621      1.15687
  184 1     3     -0.01900     15.23514     53.29663      1.13186
  185 1     3     -0.01300     16.39999     52.81035      0.50383
  186 1     3      0.02900     17.65453     53.62365      0.48124
  187 1     3     -0.06500     17.59894     55.02864      0.47889
  188 1     2     -0.18900     44.46898     49.96969      1.03039
  189 1     1     -0.01900     44.27434     51.28004      1.56468
  190 1     3      0.11500     28.05957     50.35709      0.93664
  191 1     3     -0.07300     29.36008     49.81402      0.90034
  192 1     3     -0.02000     29.57376     48.42828      0.88366
  193 1     4      0.04200     30.97470     47.94298      0.85517
  194 1     5     -0.11200     31.25414     46.69922      0.60742
  195 1     3      0.08000     32.56558     46.11437      0.56733
  196 1     3     -0.06500     33.68690     46.72500      1.15687
  197 1     3     -0.01800     34.93126     46.09055      1.13186
  198 1     3     -0.01300     35.09237     44.83895      0.50383
  199 1     3      0.02900     36.42416     44.15881      0.48124
  200 1     3     -0.06500     37.61312     44.90944      0.47889
  201 1     2     -0.18600     27.82423     51.74641      1.03039
  202 1     1     -0.01800     28.86189     52.56983      1.56468
  203 1     3      0.11700     17.72990     64.39427      0.93664
  204 1     3     -0.07000     36.39250     33.15582      0.90034
  205 1     3     -0.02100     37.48556     34.03406      0.88366
  206 1     4      0.03900     37.20556     35.48964      0.85517
  207 1     5     -0.11400     38.14297     36.35352      0.60742
  208 1     3      0.07800     37.99374     37.78169      0.56733
  209 1     3     -0.06500     36.90426     38.44747      1.15687
  210 1     3     -0.01900     36.83153     39.84234      1.13186
  211 1     3     -0.01300     37.83471     40.60799      0.50383
  212 1     3      0.02900     37.75802     42.10109      0.48124
  213 1     3     -0.06500     36.51347     42.75545      0.47889
  214 1     2     -0.18200     16.64419     63.49612      1.03039
  215 1     1     -0.02300     15.41245     63.98272      1.56468
  216 1     3      0.11500     10.73818     48.42992      0.93664
  217 1     3     -0.07000     47.30271     47.57517      0.90034
  218 1     3     -0.01800     45.99542     48.08299      0.88366
  219 1     4      0.04700     44.87504     47.11239      0.85517
  220 1     5     -0.11600     43.65819     47.49228      0.60742
  221 1     3      0.07600     42.49598     46.64896      0.56733
  222 1     3     -0.06400     42.46414     45.37255      1.15687
  223 1     3     -0.01800     41.29251     44.61213      1.13186
  224 1     3     -0.01300     40.12766     45.09841      0.50383
  225 1     3      0.02900     38.87312     44.28511      0.48124
  226 1     3     -0.06500     38.92871     42.88012      0.47889
  227 1     2     -0.18900     12.05867     47.93907      1.03039
  228 1     1     -0.01900     12.25331     46.62872      1.56468
  229 1     6      0.04700     26.26124     47.40351      0.88382
  230 1     6      0.02000     24.69505     49.24158      1.05320
  231 1     6      0.04400     22.94420     50.16519      1.65880
  232 1     6      0.03100     20.69458     51.32410      1.62356
  233 1     6      0.04200     18.95956     51.85999      0.47488
  234 1     6      0.04100     28.10705     44.34418      1.90412
  235 1     6      0.03500     26.87852     45.15095      0.76210
  236 1     6      0.03600     27.18396     45.86405      2.45441
  237 1     6      0.05100     21.18694     64.31365      0.88382
  238 1     6      0.02000     20.37822     62.03826      1.05320
  239 1     6      0.04200     20.45378     60.06017      1.65880
  240 1     6      0.03100     20.57493     57.53249      1.62356
  241 1     6      0.04200     20.97835     55.76198      0.47488
  242 1     6      0.04300     41.90357     33.90254      0.74149
  243 1     6      0.04500     40.96201     32.87352      1.97445
  244 1     6      0.05100     41.46303     34.61401      2.40454
  245 1     6      0.05100      9.07947     51.46411      0.88382
  246 1     6      0.02500     11.45439     51.90143      1.05320
  247 1     6      0.04500     13.12968     52.95591      1.65880
  248 1     6      0.03100     15.25813     54.32468      1.62356
  249 1     6      0.04200     16.58973     55.55931      0.47488
  250 1     6      0.03500     44.42112     52.05254      0.73944
  251 1     6      0.03600     45.02898     51.46639      2.39840
  252 1     6      0.03800     43.21727     51.36685      1.98279
  253 1     6      0.04600     30.26641     50.50526      0.88382
  254 1     6      0.02000     31.83260     48.66718      1.05320
  255 1     6      0.04400     33.58345     47.74358      1.65880
  256 1     6      0.03100     35.83307     46.58466      1.62356
  257 1     6      0.04200     37.56809     46.04878      0.47488
  258 1     6      0.03800     29.26644     53.25094      0.74498
  259 1     6      0.03300     29.70340     51.91123      1.96149
  260 1     6      0.04100     28.44321     53.20493      2.41409
  261 1     6      0.04800     35.34071     33.59511      0.88382
  262 1     6      0.01800     36.14943     35.87051      1.05320
  263 1     6      0.04200     36.07387     37.84859      1.65880
  264 1     6      0.03100     35.95272     40.37627      1.62356
  265 1     6      0.04200     35.54930     42.14678      0.47488
  266 1     6      0.05300     14.95740     63.19325      2.24978
  267 1     6      0.04300     14.69041     64.20726      0.71148
  268 1     6      0.04800     15.60615     64.93570      2.15937
  269 1     6      0.05100     47.44818     46.44465      0.88382
  270 1     6      0.02700     45.07326     46.00733      1.05320
  271 1     6      0.04700     43.39797     44.95285      1.65880
  272 1     6      0.03200     41.26952     43.58409      1.62356
  273 1     6      0.04300     39.93792     42.34946      0.47488
  274 1     6      0.03800     13.21956     46.60457      2.16900
  275 1     6      0.03500     12.32001     45.87613      0.71095
  276 1     6      0.03600     11.37562     46.35980      2.24061
  277 1     3     -0.01800    -15.11983     53.66999     37.80630
  278 1     3     -0.06100    -13.87132     53.04599     37.85670
  279 1     3     -0.01900    -20.07711     57.97961     37.80630
  280 1     3     -0.06100    -20.16096     59.37285     37.85670
  281 1     3     -0.01800    -21.33071     51.53167     37.80630
  282 1     3     -0.06400    -22.49537     50.76243     37.85670
  283 1     3     -0.01800     -3.72272     44.23877     37.80630
  284 1     3     -0.06100     -4.97123     44.86277     37.85670
  285 1     3     -0.01900      1.23456     39.92915     37.80630
  286 1     3     -0.06100      1.31841     38.53591     37.85670
  287 1     3     -0.01900      2.48816     46.37710     37.80630
  288 1     3     -0.06500      3.65282     47.14633     37.85670
  289 1     6      0.03200    -15.21856     54.67650     37.27989
  290 1     6      0.05300    -12.95972     53.55772     37.40244
  291 1     6      0.03200    -20.89940     57.39085     37.27989
  292 1     6      0.05000    -21.05994     59.90646     37.40244
  293 1     6      0.03200    -20.40968     51.11392     37.27989
  294 1     6      0.04700    -22.50799     49.71709     37.40244
  295 1     6      0.03200     -3.62399     43.23227     37.27989
  296 1     6      0.05300     -5.88283     44.35104     37.40244
  297 1     6      0.03200      2.05685     40.51791     37.27989
  298 1     6      0.05000      2.21739     38.00231     37.40244
  299 1     6      0.03200      1.56713     46.79484     37.27989
  300 1     6      0.04900      3.66544     48.19167     37.40244
  301 1     3      0.11300     47.31063     14.91542      0.93664
  302 1     3     -0.07400     46.01012     15.45849      0.90034
  303 1     3     -0.02100     45.79644     16.84422      0.88366
  304 1     4      0.04200     44.39550     17.32952      0.85517
  305 1     5     -0.11200     44.11606     18.57329      0.60742
  306 1     3      0.08000     42.80462     19.15813      0.56733
  307 1     3     -0.06500     41.68330     18.54751      1.15687
  308 1     3     -0.01800     40.43894     19.18196      1.13186
  309 1     3     -0.01300     40.27783     20.43356      0.50383
  310 1     3      0.02900     38.94604     21.11370      0.48124
  311 1     3     -0.06500     37.75708     20.36306      0.47889
  312 1     2     -0.18600     47.54597     13.52610      1.03039
  313 1     1     -0.01900     46.50831     12.70268      1.56468
  314 1     3      0.11700     57.64030      0.87824      0.93664
  315 1     3     -0.06900     38.97770     32.11668      0.90034
  316 1     3     -0.01900     37.88464     31.23844      0.88366
  317 1     4      0.04000     38.16464     29.78287      0.85517
  318 1     5     -0.11400     37.22723     28.91898      0.60742
  319 1     3      0.07700     37.37646     27.49082      0.56733
  320 1     3     -0.06600     38.46594     26.82504      1.15687
  321 1     3     -0.01900     38.53867     25.43017      1.13186
  322 1     3     -0.01300     37.53549     24.66452      0.50383
  323 1     3      0.02900     37.61218     23.17141      0.48124
  324 1     3     -0.06500     38.85673     22.51706      0.47889
  325 1     2     -0.18500     58.72601      1.77639      1.03039
  326 1     1     -0.02100     59.95775      1.28978      1.56468
  327 1     3      0.11400     64.63202     16.84259      0.93664
  328 1     3     -0.06900     28.06749     17.69734      0.90034
  329 1     3     -0.01600     29.37478     17.18951      0.88366
  330 1     4      0.04900     30.49516     18.16012      0.85517
  331 1     5     -0.11600     31.71201     17.78023      0.60742
  332 1     3      0.07700     32.87422     18.62355      0.56733
  333 1     3     -0.06200     32.90606     19.89996      1.15687
  334 1     3     -0.01900     34.07769     20.66038      1.13186
  335 1     3     -0.01300     35.24254     20.17410      0.50383
  336 1     3      0.02900     36.49708     20.98740      0.48124
  337 1     3     -0.06500     36.44149     22.39239      0.47889
  338 1     2     -0.18900     63.31153     17.33344      1.03039
  339 1     1     -0.01900     63.11689     18.64379      1.56468
  340 1     3      0.11500     46.90212     17.72083      0.93664
  341 1     3     -0.07300     48.20263     17.17777      0.90034
  342 1     3     -0.02000     48.41631     15.79203      0.88366
  343 1     4      0.04200     49.81725     15.30673      0.85517
  344 1     5     -0.11200     50.09669     14.06296      0.60742
  345 1     3      0.08000     51.40813     13.47812      0.56733
  346 1     3     -0.06500     52.52945     14.08874      1.15687
  347 1     3     -0.01800     53.77381     13.45430      1.13186
  348 1     3     -0.01300     53.93492     12.20270      0.50383
  349 1     3      0.02900     55.26671     11.52256      0.48124
  350 1     3     -0.06500     56.45567     12.27319      0.47889
  351 1     2     -0.18600     46.66678     19.11016      1.03039
  352 1     1     -0.01800     47.70444     19.93357      1.56468
  353 1     3      0.11700     36.57245     31.75801      0.93664
  354 1     3     -0.07000     55.23505      0.51957      0.90034
  355 1     3     -0.02100     56.32811      1.39781      0.88366
  356 1     4      0.03900     56.04811      2.85339      0.85517
  357 1     5     -0.11400     56.98552      3.71727      0.60742
  358 1     3      0.07800     56.83629      5.14543      0.56733
  359 1     3     -0.06500     55.74681      5.81121      1.15687
  360 1     3     -0.01900     55.67408      7.20608      1.13186
  361 1     3     -0.01300     56.67726      7.97173      0.50383
  362 1     3      0.02900     56.60057      9.46484      0.48124
  363 1     3     -0.06500     55.35602     10.11920      0.47889
  364 1     2     -0.18200     35.48674     30.85986      1.03039
  365 1     1     -0.02300     34.25500     31.34647      1.56468
  366 1     3      0.11500     29.58073     15.79366      0.93664
  367 1     3     -0.07000     66.14526     14.93892      0.90034
  368 1     3     -0.01800     64.83797     15.44674      0.88366
  369 1     4      0.04700     63.71759     14.47614      0.85517
  370 1     5     -0.11600     62.50074     14.85602      0.60742
  371 1     3      0.07600     61.33853     14.01270      0.56733
  372 1     3     -0.06400     61.30669     12.73630      1.15687
  373 1     3     -0.01800     60.13506     11.97587      1.13186
  374 1     3     -0.01300     58.97021     12.46215      0.50383
  375 1     3      0.02900     57.71567     11.64886      0.48124
  376 1     3     -0.06500     57.77126     10.24387      0.47889
  377 1     2     -0.18900     30.90122     15.30281      1.03039
  378 1     1     -0.01900     31.09586     13.99247      1.56468
  379 1     6      0.04700     45.10379     14.76725      0.88382
  380 1     6      0.02000     43.53760     16.60533      1.05320
  381 1     6      0.04400     41.78675     17.52893      1.65880
  382 1     6      0.03100     39.53713     18.68785      1.62356
  383 1     6      0.04200     37.80211     19.22373      0.47488
  384 1     6      0.04100     46.94960     11.70793      1.90412
  385 1     6      0.03500     45.72107     12.51470      0.76210
  386 1     6      0.03600     46.02651     13.22780      2.45441
  387 1     6      0.05100     40.02949     31.67740      0.88382
  388 1     6      0.02000     39.22077     29.40200      1.05320
  389 1     6      0.04200     39.29633     27.42392      1.65880
  390 1     6      0.03100     39.41748     24.89624      1.62356
  391 1     6      0.04200     39.82090     23.12572      0.47488
  392 1     6      0.04300     60.74612      1.26629      0.74149
  393 1     6      0.04500     59.80456      0.23727      1.97445
  394 1     6      0.05100     60.30558      1.97776      2.40454
  395 1     6      0.05100     27.92202     18.82785      0.88382
  396 1     6      0.02500     30.29694     19.26518      1.05320
  397 1     6      0.04500     31.97223     20.31966      1.65880
  398 1     6      0.03100     34.10068     21.68842      1.62356