Created by Ryther's code on 2025-12-11 14:58:30.844238

    6000 atoms
    6480 bonds
    10560 angles
    14640 dihedrals
    2880 impropers

    6 atom types
    10 bond types
    14 angle types
    7 dihedral types
    2 improper types

0.00000000 75.3702 xlo xhi
0.00000000 65.27250789 ylo yhi
0.00000000 37.893 zlo zhi
-37.6851 0.0 0.0 xy xz yz 

Masses 

    1    15.9994
    2    12.0107
    3    14.0067
    4    12.0107
    5    1.00794
    6    12.0107

Pair Coeffs

    1       0.06000      3.11815 # O_3 O_3
    2       0.10500      3.43085 # C_3 C_3
    3       0.06900      3.26069 # N_2 N_2
    4       0.10500      3.43085 # C_R C_R
    5       0.04400      2.57113 # H_ H_
    6       0.10500      3.43085 # C_2 C_2

Bond Coeffs

    1     462.65505      1.37926 # C_R C_R bond order=1.5
    2     572.46041      1.36631 # C_R O_3 bond order=1.0
    3     357.44038      1.08142 # C_R H_ bond order=1.0
    4     389.26171      1.46100 # C_2 C_R bond order=1.0
    5     769.38234      1.28041 # C_2 N_2 bond order=2.0
    6     354.48390      1.08442 # C_2 H_ bond order=1.0
    7     578.29491      1.40825 # C_R N_2 bond order=1.0
    8     391.66951      1.45800 # C_R C_R bond order=1.0
    9     539.20166      1.39385 # C_3 O_3 bond order=1.0
    10    331.06939      1.10940 # C_3 H_ bond order=1.0

Angle Coeffs

    1  cosine/periodic        135.76992           -1            3 # C_R C_R O_3
    2  cosine/periodic        111.29751           -1            3 # C_R C_R C_R
    3  cosine/periodic         57.28902           -1            3 # C_R C_R H_
    4  cosine/periodic        101.85214           -1            3 # C_2 C_R C_R
    5  cosine/periodic        150.01499           -1            3 # C_R C_2 N_2
    6  cosine/periodic         51.27132           -1            3 # C_R C_2 H_
    7  cosine/periodic         86.74085           -1            3 # H_ C_2 N_2
    8  fourier                291.47740      0.36401      0.41847      0.28800 # C_2 N_2 C_R
    9  cosine/periodic        143.48201           -1            3 # C_R C_R N_2
    10 cosine/periodic        102.18328           -1            3 # C_R C_R C_R
    11 cosine/periodic        102.18328           -1            3 # C_R C_R C_R
    12 fourier                320.94891      0.30023      0.26733      0.26675 # C_3 O_3 C_R
    13 fourier                165.75867      0.34375      0.37500      0.28125 # H_ C_3 O_3
    14 fourier                 75.49653      0.34375      0.37500      0.28125 # H_ C_3 H_

Dihedral Coeffs

    1       3.36856           -1            2 # X C_R C_R X bond order=1.5
    2       0.23717           -1            2 # X C_R O_3 X bond order=1.0
    3       1.25000           -1            2 # X C_2 C_R X bond order=1.0
    4       9.74339           -1            2 # X C_2 N_2 X bond order=2.0
    5       2.50000           -1            2 # X C_R N_2 X bond order=1.0
    6       1.25000           -1            2 # X C_R C_R X bond order=1.0
    7       0.03255            1            3 # X C_3 O_3 X bond order=1.0

Improper Coeffs

    1       2.00000      1.00000     -1.00000      0.00000            1 # C_R X X X O_2 present=False
    2       2.00000      1.00000     -1.00000      0.00000            1 # C_2 X X X O_2 present=False

Atoms

    1 1     4      0.12000      9.62591     14.91542      0.93668
    2 1     4     -0.08100      8.32502     15.45849      0.90034
    3 1     4     -0.01400      8.11134     16.84422      0.88363
    4 1     6      0.04400      6.71021     17.32985      0.85517
    5 1     3     -0.10900      6.43096     18.57329      0.60746
    6 1     4      0.08900      5.11952     19.15813      0.56733
    7 1     4     -0.07300      3.99839     18.54784      1.15691
    8 1     4     -0.01600      2.75403     19.18228      1.13183
    9 1     4     -0.01500      2.59311     20.43356      0.50386
   10 1     4      0.04000      1.26132     21.11370      0.48128
   11 1     4     -0.07600      0.07198     20.36306      0.47885
   12 1     1     -0.18000      9.86106     13.52642      1.03035
   13 1     5      0.05000      7.46391     14.80511      0.88185
   14 1     5      0.04900      4.08092     17.60856      1.68438
   15 1     5      0.03100      1.93212     18.70645      1.64914
   16 1     5      0.04700      0.12813     19.28542      0.48215
   17 1     5      0.01800      5.91694     16.60728      0.99185
   18 1     2     -0.02700      8.82321     12.70268      1.56468
   19 1     5      0.04400      9.24039     11.69944      1.78703
   20 1     5      0.03100      7.99527     12.57540      0.84009
   21 1     5      0.04300      8.42978     13.13870      2.50128
   22 1     4      0.12000     19.95539      0.87792      0.93668
   23 1     4     -0.08100      1.29260     32.11668      0.90034
   24 1     4     -0.01400      0.19935     31.23877      0.88363
   25 1     6      0.04400      0.47898     29.78319      0.85517
   26 1     3     -0.10900     -0.45787     28.91898      0.60746
   27 1     4      0.08900     -0.30864     27.49082      0.56733
   28 1     4     -0.07300      0.78046     26.82504      1.15691
   29 1     4     -0.01600      0.85319     25.43017      1.13183
   30 1     4     -0.01500     -0.14999     24.66518      0.50386
   31 1     4      0.04000     -0.07311     23.17174      0.48128
   32 1     4     -0.07600      1.17163     22.51706      0.47885
   33 1     1     -0.18100     21.04035      1.77672      1.03035
   34 1     5      0.04900      2.28899     31.69764      0.88185
   35 1     5      0.04800      1.55263     27.36615      1.68438
   36 1     5      0.03000      1.67623     24.95629      1.64914
   37 1     5      0.04600      2.07683     23.10451      0.48215
   38 1     5      0.01700      1.50175     29.45683      0.99185
   39 1     2     -0.02800     22.27265      1.28978      1.56468
   40 1     5      0.04300     22.93289      2.15269      1.78703
   41 1     5      0.03000     22.79685      0.63641      0.84009
   42 1     5      0.04200     22.09176      0.73105      2.50128
   43 1     4      0.11900     26.94748     16.84227      0.93668
   44 1     4     -0.08200     -9.61761     17.69734      0.90034
   45 1     4     -0.01600     -8.31070     17.18951      0.88363
   46 1     6      0.04300     -7.18956     18.16012      0.85517
   47 1     3     -0.11000     -5.97309     17.78023      0.60746
   48 1     4      0.08800     -4.81088     18.62355      0.56733
   49 1     4     -0.07400     -4.77922     19.90028      1.15691
   50 1     4     -0.01700     -3.60759     20.66071      1.13183
   51 1     4     -0.01600     -2.44275     20.17443      0.50386
   52 1     4      0.03900     -1.18783     20.98772      0.48128
   53 1     4     -0.07700     -1.24361     22.39239      0.47885
   54 1     1     -0.18100     25.62624     17.33311      1.03035
   55 1     5      0.04900     -9.75253     18.77042      0.88185
   56 1     5      0.04800     -5.63392     20.29844      1.68438
   57 1     5      0.03000     -3.60873     21.61042      1.64914
   58 1     5      0.04600     -2.20533     22.88324      0.48215
   59 1     5      0.01700     -7.41869     19.20839      0.99185
   60 1     2     -0.02800     25.43179     18.64379      1.56468
   61 1     5      0.04300     24.35437     18.78412      1.78703
   62 1     5      0.03000     25.73553     19.42445      0.84009
   63 1     5      0.04100     26.00649     18.76715      2.50128
   64 1     4      0.11900      9.21664     17.72083      0.93668
   65 1     4     -0.08200     10.51753     17.17777      0.90034
   66 1     4     -0.01600     10.73121     15.79203      0.88363
   67 1     6      0.04300     12.13234     15.30640      0.85517
   68 1     3     -0.11000     12.41159     14.06296      0.60746
   69 1     4      0.08800     13.72303     13.47812      0.56733
   70 1     4     -0.07400     14.84416     14.08842      1.15691
   71 1     4     -0.01700     16.08852     13.45397      1.13183
   72 1     4     -0.01600     16.25019     12.20270      0.50386
   73 1     4      0.03900     17.58198     11.52256      0.48128
   74 1     4     -0.07700     18.77057     12.27319      0.47885
   75 1     1     -0.18100      8.98111     19.11048      1.03035
   76 1     5      0.04900     11.37864     17.83114      0.88185
   77 1     5      0.04800     14.76238     15.02769      1.68438
   78 1     5      0.03000     16.91119     13.92981      1.64914
   79 1     5      0.04600     18.71442     13.35084      0.48215
   80 1     5      0.01700     12.92561     16.02897      0.99185
   81 1     2     -0.02800     10.01934     19.93357      1.56468
   82 1     5      0.04300      9.60216     20.93681      1.78703
   83 1     5      0.03000     10.84690     20.06151      0.84009
   84 1     5      0.04200     10.41277     19.49755      2.50128
   85 1     4      0.11900     -1.11284     31.75834      0.93668
   86 1     4     -0.08200     17.54995      0.51957      0.90034
   87 1     4     -0.01500     18.64320      1.39748      0.88363
   88 1     6      0.04300     18.36320      2.85371      0.85517
   89 1     3     -0.11000     19.30042      3.71727      0.60746
   90 1     4      0.08800     19.15119      5.14543      0.56733
   91 1     4     -0.07400     18.06209      5.81121      1.15691
   92 1     4     -0.01700     17.98936      7.20608      1.13183
   93 1     4     -0.01600     18.99216      7.97173      0.50386
   94 1     4      0.03900     18.91528      9.46517      0.48128
   95 1     4     -0.07700     17.67092     10.11920      0.47885
   96 1     1     -0.18100     -2.19780     30.85954      1.03035
   97 1     5      0.04900     16.55356      0.93862      0.88185
   98 1     5      0.04800     17.28992      5.27010      1.68438
   99 1     5      0.03000     17.16632      7.67996      1.64914
  100 1     5      0.04600     16.76572      9.53174      0.48215
  101 1     5      0.01700     17.34080      3.17942      0.99185
  102 1     2     -0.02800     -3.43010     31.34647      1.56468
  103 1     5      0.04300     -4.09034     30.48357      1.78703
  104 1     5      0.03000     -3.95430     31.99985      0.84009
  105 1     5      0.04100     -3.24959     31.90585      2.50128
  106 1     4      0.11900     -8.10493     15.79399      0.93668
  107 1     4     -0.08200     28.46016     14.93892      0.90034
  108 1     4     -0.01500     27.15325     15.44674      0.88363
  109 1     6      0.04300     26.03287     14.47614      0.85517
  110 1     3     -0.11000     24.81564     14.85602      0.60746
  111 1     4      0.08800     23.65343     14.01270      0.56733
  112 1     4     -0.07400     23.62140     12.73662      1.15691
  113 1     4     -0.01700     22.44977     11.97620      1.13183
  114 1     4     -0.01600     21.28492     12.46248      0.50386
  115 1     4      0.03900     20.03001     11.64918      0.48128
  116 1     4     -0.07700     20.08616     10.24387      0.47885
  117 1     1     -0.18100     -6.78369     15.30314      1.03035
  118 1     5      0.04900     28.59545     13.86649      0.88185
  119 1     5      0.04800     24.47610     12.33846      1.68438
  120 1     5      0.03000     22.45090     11.02648      1.64914
  121 1     5      0.04600     21.04751      9.75367      0.48215
  122 1     5      0.01700     26.26124     13.42786      0.99185
  123 1     2     -0.02800     -6.58924     13.99247      1.56468
  124 1     5      0.04300     -5.51182     13.85213      1.78703
  125 1     5      0.03000     -6.89298     13.21181      0.84009
  126 1     5      0.04200     -7.16431     13.86976      2.50128
  127 1     4      0.11900     47.31101     14.91542      0.93668
  128 1     4     -0.08200     46.01012     15.45849      0.90034
  129 1     4     -0.01500     45.79644     16.84422      0.88363
  130 1     6      0.04300     44.39531     17.32985      0.85517
  131 1     3     -0.11000     44.11606     18.57329      0.60746
  132 1     4      0.08800     42.80462     19.15813      0.56733
  133 1     4     -0.07400     41.68349     18.54784      1.15691
  134 1     4     -0.01700     40.43913     19.18228      1.13183
  135 1     4     -0.01600     40.27821     20.43356      0.50386
  136 1     4      0.03900     38.94642     21.11370      0.48128
  137 1     4     -0.07700     37.75708     20.36306      0.47885
  138 1     1     -0.18100     47.54616     13.52642      1.03035
  139 1     5      0.04900     45.14901     14.80511      0.88185
  140 1     5      0.04800     41.76602     17.60856      1.68438
  141 1     5      0.03000     39.61722     18.70645      1.64914
  142 1     5      0.04600     37.81323     19.28542      0.48215
  143 1     5      0.01700     43.60204     16.60728      0.99185
  144 1     2     -0.02800     46.50831     12.70268      1.56468
  145 1     5      0.04300     46.92549     11.69944      1.78703
  146 1     5      0.03000     45.68037     12.57540      0.84009
  147 1     5      0.04200     46.11488     13.13870      2.50128
  148 1     4      0.11900     57.64049      0.87792      0.93668
  149 1     4     -0.08200     38.97770     32.11668      0.90034
  150 1     4     -0.01600     37.88445     31.23877      0.88363
  151 1     6      0.04300     38.16408     29.78319      0.85517
  152 1     3     -0.11000     37.22723     28.91898      0.60746
  153 1     4      0.08800     37.37646     27.49082      0.56733
  154 1     4     -0.07400     38.46631     26.82504      1.15691
  155 1     4     -0.01700     38.53829     25.43017      1.13183
  156 1     4     -0.01600     37.53511     24.66518      0.50386
  157 1     4      0.03900     37.61199     23.17174      0.48128
  158 1     4     -0.07700     38.85673     22.51706      0.47885
  159 1     1     -0.18100     58.72620      1.77672      1.03035
  160 1     5      0.04900     39.97409     31.69764      0.88185
  161 1     5      0.04800     39.23773     27.36615      1.68438
  162 1     5      0.03000     39.36209     24.95629      1.64914
  163 1     5      0.04600     39.76193     23.10451      0.48215
  164 1     5      0.01700     39.18685     29.45683      0.99185
  165 1     2     -0.02700     59.95775      1.28978      1.56468
  166 1     5      0.04300     60.61874      2.15269      1.78703
  167 1     5      0.03000     60.48195      0.63641      0.84009
  168 1     5      0.04100     59.77686      0.73105      2.50128
  169 1     4      0.11900     64.63258     16.84227      0.93668
  170 1     4     -0.08200     28.06749     17.69734      0.90034
  171 1     4     -0.01600     29.37440     17.18951      0.88363
  172 1     6      0.04300     30.49554     18.16012      0.85517
  173 1     3     -0.11000     31.71201     17.78023      0.60746
  174 1     4      0.08800     32.87422     18.62355      0.56733
  175 1     4     -0.07400     32.90588     19.90028      1.15691
  176 1     4     -0.01700     34.07788     20.66005      1.13183
  177 1     4     -0.01600     35.24235     20.17443      0.50386
  178 1     4      0.03900     36.49727     20.98772      0.48128
  179 1     4     -0.07700     36.44149     22.39239      0.47885
  180 1     1     -0.18100     63.31134     17.33311      1.03035
  181 1     5      0.04900     27.93257     18.77042      0.88185
  182 1     5      0.04800     32.05118     20.29844      1.68438
  183 1     5      0.03000     34.07637     21.61042      1.64914
  184 1     5      0.04600     35.47977     22.88324      0.48215
  185 1     5      0.01700     30.26641     19.20839      0.99185
  186 1     2     -0.02800     63.11689     18.64379      1.56468
  187 1     5      0.04300     62.03947     18.78412      1.78703
  188 1     5      0.03000     63.42063     19.42445      0.84009
  189 1     5      0.04200     63.69196     18.76650      2.50128
  190 1     4      0.11900     46.90250     17.72083      0.93668
  191 1     4     -0.08200     48.20263     17.17777      0.90034
  192 1     4     -0.01600     48.41631     15.79203      0.88363
  193 1     6      0.04300     49.81744     15.30640      0.85517
  194 1     3     -0.11000     50.09669     14.06296      0.60746
  195 1     4      0.08800     51.40813     13.47812      0.56733
  196 1     4     -0.07400     52.53001     14.08842      1.15691
  197 1     4     -0.01700     53.77438     13.45397      1.13183
  198 1     4     -0.01600     53.93529     12.20270      0.50386
  199 1     4      0.03900     55.26708     11.52256      0.48128
  200 1     4     -0.07700     56.45567     12.27319      0.47885
  201 1     1     -0.18100     46.66621     19.11048      1.03035
  202 1     5      0.04900     49.06449     17.83114      0.88185
  203 1     5      0.04800     52.44748     15.02769      1.68438
  204 1     5      0.03000     54.59629     13.92981      1.64914
  205 1     5      0.04600     56.39952     13.35084      0.48215
  206 1     5      0.01700     50.61071     16.02897      0.99185
  207 1     2     -0.02800     47.70444     19.93357      1.56468
  208 1     5      0.04300     47.28726     20.93681      1.78703
  209 1     5      0.03000     48.53200     20.06151      0.84009
  210 1     5      0.04100     48.09862     19.49755      2.50128
  211 1     4      0.11900     36.57226     31.75834      0.93668
  212 1     4     -0.08200     55.23505      0.51957      0.90034
  213 1     4     -0.01500     56.32830      1.39748      0.88363
  214 1     6      0.04300     56.04830      2.85371      0.85517
  215 1     3     -0.11000     56.98552      3.71727      0.60746
  216 1     4      0.08800     56.83629      5.14543      0.56733
  217 1     4     -0.07400     55.74719      5.81121      1.15691
  218 1     4     -0.01700     55.67446      7.20608      1.13183
  219 1     4     -0.01600     56.67726      7.97173      0.50386
  220 1     4      0.03900     56.60038      9.46517      0.48128
  221 1     4     -0.07700     55.35602     10.11920      0.47885
  222 1     1     -0.18100     35.48730     30.85954      1.03035
  223 1     5      0.04900     54.23828      0.93927      0.88185
  224 1     5      0.04800     54.97502      5.27010      1.68438
  225 1     5      0.03000     54.85142      7.67996      1.64914
  226 1     5      0.04600     54.45082      9.53174      0.48215
  227 1     5      0.01700     55.02590      3.17942      0.99185
  228 1     2     -0.02800     34.25500     31.34647      1.56468
  229 1     5      0.04300     33.59476     30.48357      1.78703
  230 1     5      0.03000     33.73080     31.99985      0.84009
  231 1     5      0.04100     34.43551     31.90585      2.50128
  232 1     4      0.11900     29.58092     15.79399      0.93668
  233 1     4     -0.08200     66.14526     14.93892      0.90034
  234 1     4     -0.01500     64.83835     15.44674      0.88363
  235 1     6      0.04300     63.71797     14.47614      0.85517
  236 1     3     -0.11000     62.50074     14.85602      0.60746
  237 1     4      0.08800     61.33853     14.01270      0.56733
  238 1     4     -0.07400     61.30650     12.73662      1.15691
  239 1     4     -0.01700     60.13487     11.97620      1.13183
  240 1     4     -0.01600     58.97002     12.46248      0.50386
  241 1     4      0.03900     57.71586     11.64918      0.48128
  242 1     4     -0.07700     57.77126     10.24387      0.47885
  243 1     1     -0.18100     30.90141     15.30314      1.03035
  244 1     5      0.04900     66.28055     13.86649      0.88185
  245 1     5      0.04800     62.16120     12.33846      1.68438
  246 1     5      0.03000     60.13600     11.02648      1.64914
  247 1     5      0.04600     58.73261      9.75367      0.48215
  248 1     5      0.01700     63.94634     13.42786      0.99185
  249 1     2     -0.02800     31.09586     13.99247      1.56468
  250 1     5      0.04300     32.17403     13.85213      1.78703
  251 1     5      0.03000     30.79287     13.21181      0.84009
  252 1     5      0.04100     30.52079     13.86976      2.50128
  253 1     4      0.11900     -9.21664     47.55167      0.93668
  254 1     4     -0.08200    -10.51753     48.09474      0.90034
  255 1     4     -0.01500    -10.73121     49.48048      0.88363
  256 1     6      0.04300    -12.13234     49.96610      0.85517
  257 1     3     -0.11000    -12.41159     51.20955      0.60746
  258 1     4      0.08800    -13.72303     51.79439      0.56733
  259 1     4     -0.07400    -14.84416     51.18409      1.15691
  260 1     4     -0.01700    -16.08852     51.81854      1.13183
  261 1     4     -0.01600    -16.24944     53.06981      0.50386
  262 1     4      0.03900    -17.58123     53.74995      0.48128
  263 1     4     -0.07700    -18.77057     52.99932      0.47885
  264 1     1     -0.18100     -8.98149     46.16268      1.03035
  265 1     5      0.04900    -11.37864     47.44136      0.88185
  266 1     5      0.04800    -14.76163     50.24482      1.68438
  267 1     5      0.03000    -16.91043     51.34270      1.64914
  268 1     5      0.04600    -18.71442     51.92167      0.48215
  269 1     5      0.01700    -12.92561     49.24354      0.99185
  270 1     2     -0.02800    -10.01934     45.33894      1.56468
  271 1     5      0.04300     -9.60216     44.33570      1.78703
  272 1     5      0.03000    -10.84728     45.21166      0.84009
  273 1     5      0.04200    -10.41277     45.77496      2.50128
  274 1     4      0.11900      1.11284     33.51417      0.93668
  275 1     4     -0.08200    -17.54995     64.75294      0.90034
  276 1     4     -0.01600    -18.64320     63.87502      0.88363
  277 1     6      0.04300    -18.36357     62.41945      0.85517
  278 1     3     -0.11000    -19.30042     61.55524      0.60746
  279 1     4      0.08800    -19.15119     60.12708      0.56733
  280 1     4     -0.07400    -18.06209     59.46130      1.15691
  281 1     4     -0.01700    -17.98936     58.06642      1.13183
  282 1     4     -0.01600    -18.99254     57.30143      0.50386
  283 1     4      0.03900    -18.91566     55.80799      0.48128
  284 1     4     -0.07700    -17.67092     55.15331      0.47885
  285 1     1     -0.18100      2.19780     34.41297      1.03035
  286 1     5      0.04900    -16.55356     64.33389      0.88185
  287 1     5      0.04800    -17.28992     60.00241      1.68438
  288 1     5      0.03000    -17.16632     57.59254      1.64914
  289 1     5      0.04600    -16.76572     55.74076      0.48215
  290 1     5      0.01700    -17.34080     62.09308      0.99185
  291 1     2     -0.02800      3.43010     33.92604      1.56468
  292 1     5      0.04300      4.08996     34.78959      1.78703
  293 1     5      0.03000      3.95392     33.27331      0.84009
  294 1     5      0.04200      3.24921     33.36731      2.50128
  295 1     4      0.11900      8.10456     49.47917      0.93668
  296 1     4     -0.08200    -28.46016     50.33359      0.90034
  297 1     4     -0.01600    -27.15325     49.82577      0.88363
  298 1     6      0.04300    -26.03211     50.79637      0.85517
  299 1     3     -0.11000    -24.81564     50.41649      0.60746
  300 1     4      0.08800    -23.65343     51.25981      0.56733
  301 1     4     -0.07400    -23.62177     52.53654      1.15691
  302 1     4     -0.01700    -22.45014     53.29696      1.13183
  303 1     4     -0.01600    -21.28530     52.81068      0.50386
  304 1     4      0.03900    -20.03038     53.62398      0.48128
  305 1     4     -0.07700    -20.08616     55.02864      0.47885
  306 1     1     -0.18100      6.78332     49.97002      1.03035
  307 1     5      0.04900    -28.59508     51.40667      0.88185
  308 1     5      0.04800    -24.47647     52.93470      1.68438
  309 1     5      0.03000    -22.45128     54.24668      1.64914
  310 1     5      0.04600    -21.04788     55.51949      0.48215
  311 1     5      0.01700    -26.26124     51.84465      0.99185
  312 1     2     -0.02700      6.58924     51.28004      1.56468
  313 1     5      0.04300      5.51182     51.42038      1.78703
  314 1     5      0.03000      6.89298     52.06070      0.84009
  315 1     5      0.04100      7.16394     51.40341      2.50128
  316 1     4      0.11900     -9.62591     50.35709      0.93668
  317 1     4     -0.08200     -8.32502     49.81402      0.90034
  318 1     4     -0.01600     -8.11134     48.42828      0.88363
  319 1     6      0.04300     -6.71021     47.94266      0.85517
  320 1     3     -0.11000     -6.43096     46.69922      0.60746
  321 1     4      0.08800     -5.11952     46.11437      0.56733
  322 1     4     -0.07400     -3.99839     46.72467      1.15691
  323 1     4     -0.01700     -2.75403     46.09022      1.13183
  324 1     4     -0.01600     -2.59236     44.83895      0.50386
  325 1     4      0.03900     -1.26057     44.15881      0.48128
  326 1     4     -0.07700     -0.07198     44.90944      0.47885
  327 1     1     -0.18100     -9.86144     51.74674      1.03035
  328 1     5      0.04900     -7.46391     50.46740      0.88185
  329 1     5      0.04800     -4.08054     47.66460      1.68438
  330 1     5      0.03000     -1.93136     46.56606      1.64914
  331 1     5      0.04600     -0.12813     45.98709      0.48215
  332 1     5      0.01700     -5.91694     48.66522      0.99185
  333 1     2     -0.02800     -8.82321     52.56983      1.56468
  334 1     5      0.04300     -9.24076     53.57372      1.78703
  335 1     5      0.03000     -7.99565     52.69776      0.84009
  336 1     5      0.04200     -8.42978     52.13380      2.50128
  337 1     4      0.11900    -19.95539     64.39459      0.93668
  338 1     4     -0.08200     -1.29260     33.15582      0.90034
  339 1     4     -0.01600     -0.19935     34.03374      0.88363
  340 1     6      0.04300     -0.47935     35.48997      0.85517
  341 1     3     -0.11000      0.45787     36.35352      0.60746
  342 1     4      0.08800      0.30864     37.78169      0.56733
  343 1     4     -0.07400     -0.78046     38.44747      1.15691
  344 1     4     -0.01700     -0.85319     39.84234      1.13183
  345 1     4     -0.01600      0.14961     40.60799      0.50386
  346 1     4      0.03900      0.07273     42.10142      0.48128
  347 1     4     -0.07700     -1.17163     42.75545      0.47885
  348 1     1     -0.18100    -21.04035     63.49579      1.03035
  349 1     5      0.04900     -2.28937     33.57553      0.88185
  350 1     5      0.04800     -1.55263     37.90636      1.68438
  351 1     5      0.03000     -1.67623     40.31622      1.64914
  352 1     5      0.04600     -2.07683     42.16800      0.48215
  353 1     5      0.01700     -1.50175     35.81568      0.99185
  354 1     2     -0.02800    -22.27265     63.98272      1.56468
  355 1     5      0.04300    -22.93289     63.11982      1.78703
  356 1     5      0.03000    -22.79685     64.63610      0.84009
  357 1     5      0.04100    -22.09214     64.54211      2.50128
  358 1     4      0.11900    -26.94748     48.43024      0.93668
  359 1     4     -0.08200      9.61761     47.57517      0.90034
  360 1     4     -0.01500      8.31070     48.08299      0.88363
  361 1     6      0.04200      7.19032     47.11239      0.85517
  362 1     3     -0.11000      5.97309     47.49228      0.60746
  363 1     4      0.08800      4.81088     46.64896      0.56733
  364 1     4     -0.07400      4.77885     45.37288      1.15691
  365 1     4     -0.01700      3.60722     44.61245      1.13183
  366 1     4     -0.01600      2.44237     45.09873      0.50386
  367 1     4      0.03900      1.18746     44.28544      0.48128
  368 1     4     -0.07700      1.24361     42.88012      0.47885
  369 1     1     -0.18100    -25.62624     47.93939      1.03035
  370 1     5      0.04900      9.75290     46.50275      0.88185
  371 1     5      0.04800      5.63355     44.97472      1.68438
  372 1     5      0.03000      3.60835     43.66274      1.64914
  373 1     5      0.04600      2.20496     42.38992      0.48215
  374 1     5      0.01700      7.41869     46.06411      0.99185
  375 1     2     -0.02800    -25.43179     46.62872      1.56468
  376 1     5      0.04300    -24.35437     46.48839      1.78703
  377 1     5      0.03000    -25.73553     45.84806      0.84009
  378 1     5      0.04200    -26.00686     46.50601      2.50128
  379 1     4      0.11900     28.46846     47.55167      0.93668
  380 1     4     -0.08200     27.16757     48.09474      0.90034
  381 1     4     -0.01500     26.95389     49.48048      0.88363
  382 1     6      0.04300     25.55276     49.96610      0.85517
  383 1     3     -0.11000     25.27351     51.20955      0.60746
  384 1     4      0.08800     23.96207     51.79439      0.56733
  385 1     4     -0.07400     22.84094     51.18409      1.15691
  386 1     4     -0.01700     21.59658     51.81854      1.13183
  387 1     4     -0.01600     21.43566     53.06981      0.50386
  388 1     4      0.03900     20.10387     53.74995      0.48128
  389 1     4     -0.07700     18.91453     52.99932      0.47885
  390 1     1     -0.18100     28.70361     46.16268      1.03035
  391 1     5      0.04900     26.30646     47.44136      0.88185
  392 1     5      0.04800     22.92347     50.24482      1.68438
  393 1     5      0.03000     20.77467     51.34270      1.64914
  394 1     5      0.04600     18.97068     51.92167      0.48215
  395 1     5      0.01700     24.75949     49.24354      0.99185
  396 1     2     -0.02800     27.66576     45.33894      1.56468
  397 1     5      0.04300     28.08294     44.33570      1.78703
  398 1     5      0.03000     26.83782     45.21166      0.84009
  399 1     5      0.04200     27.27233     45.77496      2.50128
  400 1     4      0.11900     38.79794     33.51417      0.93668
  401 1     4     -0.08200     20.13515     64.75294      0.90034
  402 1     4     -0.01600     19.04190     63.87502      0.88363
  403 1     6      0.04300     19.32153     62.41945      0.85517
  404 1     3     -0.11000     18.38468     61.55524      0.60746